/*--------------------------------*- C++ -*----------------------------------*\
| =========                 |                                                 |
| \\      /  F ield         | foam-extend: Open Source CFD                    |
|  \\    /   O peration     | Version:     3.1                                |
|   \\  /    A nd           | Web:         http://www.extend-project.de       |
|    \\/     M anipulation  |                                                 |
\*---------------------------------------------------------------------------*/
FoamFile
{
    version     2.0;
    format      ascii;
    class       regIOobject;
    location    "172800/uniform";
    object      profilingInfo;
}
// * * * * * * * * * * * * * * * * * * * * * * * * * * * * * * * * * * * * * //

profilingInfo
(

    {
        id              10;
        parentId        8;
        description     "Foam::Time::writeObject - outputTime";
        calls           100;
        totalTime       135.833;
        childTime       0;
        onStack         1;
    }

    {
        id              8;
        parentId        1;
        description     "Foam::Time::writeObject";
        calls           1050;
        totalTime       135.838;
        childTime       135.833;
        onStack         1;
    }

    {
        id              1;
        description     "application::main";
        calls           1;
        totalTime       904.298;
        childTime       192.132;
        onStack         1;
    }

    {
        id              3;
        parentId        2;
        description     "functionObjectList::read";
        calls           1;
        totalTime       2.4e-05;
        childTime       0;
        onStack         0;
    }

    {
        id              9;
        parentId        1;
        description     "functionObjects_.execute()";
        calls           999;
        totalTime       0.002797;
        childTime       0;
        onStack         0;
    }

    {
        id              2;
        parentId        1;
        description     "functionObjects_.start()";
        calls           1;
        totalTime       5e-05;
        childTime       2.4e-05;
        onStack         0;
    }

    {
        id              4;
        parentId        1;
        description     "fvMatrix::solve_DU";
        calls           16231;
        totalTime       56.2904;
        childTime       48.9744;
        onStack         0;
    }

    {
        id              5;
        parentId        4;
        description     "lduMatrix::solver_DUx";
        calls           16231;
        totalTime       16.0305;
        childTime       0;
        onStack         0;
    }

    {
        id              6;
        parentId        4;
        description     "lduMatrix::solver_DUy";
        calls           16231;
        totalTime       17.3983;
        childTime       0;
        onStack         0;
    }

    {
        id              7;
        parentId        4;
        description     "lduMatrix::solver_DUz";
        calls           16231;
        totalTime       15.5456;
        childTime       0;
        onStack         0;
    }
);


// ************************************************************************* //
