/*--------------------------------*- C++ -*----------------------------------*\
| =========                 |                                                 |
| \\      /  F ield         | foam-extend: Open Source CFD                    |
|  \\    /   O peration     | Version:     3.1                                |
|   \\  /    A nd           | Web:         http://www.extend-project.de       |
|    \\/     M anipulation  |                                                 |
\*---------------------------------------------------------------------------*/
FoamFile
{
    version     2.0;
    format      ascii;
    class       volScalarField;
    location    "172800";
    object      aGrad;
}
// * * * * * * * * * * * * * * * * * * * * * * * * * * * * * * * * * * * * * //

dimensions      [1 -4 0 0 0 0 0];

internalField   nonuniform List<scalar> 
21211
(
0.0492541
0.0146458
0.0845843
0.090611
0.0307891
0.0794268
0.0213673
0.0399886
0.0599008
0.0206155
0.118543
0.125874
0.0451002
0.0588792
0.0889505
0.0721776
0.0309875
0.0559776
0.00145971
0.0183943
0.0474339
0.0878595
0.0888411
0.0550261
0.0376134
0.0161486
0.014056
0.0515431
0.0556723
0.0844494
0.0956382
0.114949
0.0778343
0.0731249
0.072088
0.0750807
0.00628446
0.0581576
0.0709506
0.0988351
0.0509749
0.0362
0.0415644
0.00400482
0.0720668
0.0237932
0.0209276
0.0519486
0.0728282
0.0509329
0.0526921
0.058961
0.0397829
0.0619164
0.0370351
0.0425866
0.0498123
0.0696564
0.0280457
0.0402279
0.0565005
0.0636443
0.0329852
0.0601147
0.0493957
0.0203553
0.051222
0.0699779
0.00993224
0.0545424
0.0902483
0.0709267
0.0443498
0.0637367
0.0740582
0.0625173
0.0298251
0.00612111
0.0399267
0.0203598
0.015832
0.00776803
0.0509428
0.0425488
0.0713461
0.0687991
0.077563
0.0304657
0.0476274
0.0358949
0.0472028
0.0123471
0.0574216
0.0383757
0.050056
0.0868696
0.0470272
0.0105564
0.0516895
0.0449519
0.0356545
0.0736487
0.074446
0.0531922
0.0532005
0.0474642
0.0424853
0.0878123
0.0385227
0.0440587
0.0325258
0.0589739
0.0469093
0.0887574
0.0858528
0.0754313
0.0429589
0.0430682
0.120081
0.0443811
0.0384209
0.117859
0.138727
0.104705
0.0331914
0.0367272
0.0379236
0.0404462
0.0192679
0.073629
0.0416641
0.0515101
0.0778865
0.0359907
0.0278926
0.0521029
0.0967811
0.0437293
0.0410815
0.0650338
0.091252
0.0525072
0.0403108
0.0559553
0.0197996
0.0405764
0.0177404
0.044065
0.0167326
0.042205
0.0242136
0.0416568
0.0997052
0.0583699
0.0710648
0.0263047
0.0317346
0.0924587
0.0657308
0.0448007
0.102109
0.0726685
0.00951959
0.0262171
0.0342677
0.00386652
0.0983801
0.0426169
0.0415339
0.0543376
0.0423547
0.0378673
0.0633216
0.0904643
0.0162187
0.0731632
0.0627368
0.0343344
0.0597524
0.0232552
0.0181475
0.0278166
0.0619083
0.060031
0.0556392
0.0716118
0.0290202
0.0350954
0.0365757
0.0411362
0.107917
0.0439781
0.0436234
0.0314649
0.0297603
0.0242827
0.0221357
0.0282983
0.0147678
0.0273123
0.0171457
0.0304451
0.0471338
0.0355548
0.0193687
0.0652086
0.00779479
0.0387954
0.0203873
0.0103937
0.0446499
0.0457571
0.0189008
0.0278403
0.0630676
0.106036
0.031489
0.0337445
0.0230025
0.022644
0.0298728
0.0690974
0.0525741
0.0487399
0.070128
0.0661732
0.0646099
0.0425354
0.0229845
0.01865
0.036905
0.0388971
0.0590344
0.0344126
0.000213558
0.011587
0.0196637
0.00643352
0.0127501
0.0229931
0.0485818
0.019125
0.0521036
0.045579
0.12044
0.0487875
0.0309362
0.017546
0.0455372
0.0414645
0.0869789
0.0544763
0.0144932
0.0317331
0.0292851
0.0207723
0.0137145
0.0309075
0.0139185
0.0749505
0.0987741
0.0464245
0.0600511
0.0294441
0.0885991
0.0408414
0.0106614
0.0467919
0.103596
0.102409
0.019144
0.0621745
0.0172161
0.0315308
0.00707464
0.0310705
0.0242041
0.0662983
0.046559
0.0324234
0.0652152
0.0800891
0.0414724
0.0239273
0.0513875
0.0406227
0.031369
0.0326091
0.0313348
0.0249279
0.0447158
0.0249407
0.0699385
0.0999773
0.0520093
0.0345682
0.0774871
0.0241068
0.0315564
0.0286802
0.0502597
0.0692388
0.0769607
0.0420902
0.0600273
0.115387
0.000551639
0.0104945
0.0256511
0.0618058
0.0556678
0.0261418
0.0526135
0.0398063
0.0165223
0.0334151
0.0337288
0.0457416
0.0799456
0.0513572
0.0309708
0.0562611
0.0510118
0.0299064
0.0327828
0.0407927
0.0161585
0.0165573
0.0257998
0.0056573
0.0461733
0.0174322
0.0510035
0.0849292
0.0911882
0.0488282
0.0311699
0.0448802
0.0350832
0.015829
0.0844598
0.0910569
0.0496095
0.0747844
0.0514486
0.0359947
0.0145626
0.0694302
0.0570956
0.066335
0.0808171
0.0425972
0.00601261
0.0224423
0.024964
0.0424809
0.054701
0.0197816
0.0988803
0.0488674
0.0228956
0.0425679
0.0278347
0.0230282
0.0549119
0.0214503
0.0526982
0.0298386
0.0837099
0.033447
0.0229139
0.0441146
0.0371929
0.0299399
0.00734194
0.0409908
0.0563282
0.0377013
0.030992
0.0218032
0.0366851
0.00776739
0.0373721
0.0405065
0.0758695
0.0309129
0.0427167
0.00269842
0.0259364
0.0523018
0.0953633
0.0176249
0.0371878
0.070592
0.0439601
0.07475
0.00542245
0.021786
0.0167163
0.0485117
0.0402359
0.0598599
0.0587628
0.0159866
0.050061
0.0183921
0.0228025
0.0658759
0.00828577
0.0279222
0.0370851
0.0138185
0.0268065
0.0437301
0.00124125
0.0349673
0.0578567
0.0281368
0.027715
0.0547272
0.0199196
0.0380518
0.0587993
0.0302173
0.0558429
0.0216596
0.0188155
0.0297208
0.0127349
0.0454077
0.0387089
0.0712042
0.0247812
0.0638344
0.0774644
0.0495809
0.0446963
0.0436702
0.0122731
0.0736779
0.0508657
0.0264481
0.0513748
0.0430473
0.0579744
0.0565785
0.0113229
0.0843617
0.0723267
0.0241606
0.0440827
0.107536
0.0554245
0.00654113
0.0207358
0.0338399
0.0519258
0.0506813
0.0330635
0.0548614
0.0186401
0.0611051
0.0269604
0.0395708
0.0335145
0.0336905
0.0578192
0.0582485
0.0125521
0.0855827
0.0751725
0.0564101
0.0622047
0.011113
0.0377423
0.0566592
0.0116099
0.0181802
0.0321919
0.0325877
0.00706397
0.0295424
0.0213592
0.0608996
0.0812459
0.0513846
0.0185258
0.0222126
0.0527054
0.0206462
0.0131822
0.0219018
0.0156137
0.0454497
0.0321817
0.0107626
0.0630873
0.0135307
0.0632417
0.0395506
0.00582486
0.0144196
0.0466516
0.065945
0.00583757
0.0480689
0.0887887
0.039297
0.0195842
0.0175112
0.0101342
0.0172151
0.0200889
0.0703089
0.0367795
0.0921997
0.0990775
0.0564197
0.102928
0.0390156
0.0688916
0.0321987
0.0433054
0.0468377
0.0280857
0.0388551
0.0542137
0.103743
0.0834533
0.0501684
0.0736502
0.0168949
0.0487919
0.0385103
0.041767
0.0574329
0.0364338
0.0427842
0.0446989
0.0412305
0.055346
0.0623829
0.0523086
0.0512788
0.0558304
0.0854628
0.0616189
0.0317211
0.0656568
0.00278237
0.0568607
0.0416358
0.0578092
0.0420495
0.0390178
0.0980479
0.0746936
0.0357245
0.00920208
0.0515327
0.1033
0.0668563
0.0506493
0.0702557
0.0801602
0.0460906
0.107377
0.043254
0.0426355
0.0430068
0.0904486
0.0580455
0.0713063
0.0383214
0.0251152
0.0486959
0.00705181
0.080967
0.115915
0.0951819
0.0631283
0.0610916
0.032729
0.0555015
0.0702961
0.0354047
0.0595154
0.0316713
0.0515441
0.0574312
0.0319551
0.0864984
0.0315772
0.00796476
0.0410669
0.0458044
0.051142
0.0389099
0.0529362
0.0457698
0.0975852
0.0412527
0.0611822
0.00562968
0.0403518
0.0656145
0.0281693
0.0770228
0.125142
0.0938924
0.057427
0.0947868
0.0325714
0.0185687
0.0349527
0.0730863
0.0462519
0.0698031
0.0687754
0.0389516
0.0384522
0.0316204
0.0465716
0.0503401
0.0704213
0.0606124
0.0165967
0.0387236
0.0202084
0.0531931
0.0662311
0.0444235
0.0438084
0.0477757
0.0706869
0.0369967
0.0828004
0.0528687
0.0433986
0.032193
0.0492699
0.0388581
0.095515
0.0798169
0.0307757
0.0572923
0.0456242
0.0698886
0.0374256
0.0284568
0.0511025
0.0420971
0.0656008
0.0652109
0.0725702
0.041475
0.0326683
0.030908
0.0406921
0.0245239
0.0450711
0.0469054
0.0441103
0.034666
0.0652407
0.0509347
0.0135291
0.020312
0.0437051
0.0236382
0.0889872
0.111911
0.0578544
0.064765
0.00890197
0.0269361
0.0403575
0.0990904
0.106616
0.0328853
0.0383654
0.0845041
0.0958102
0.0590747
0.0798679
0.0547412
0.0481965
0.0690006
0.0513558
0.0388409
0.0456904
0.0953445
0.0696203
0.087454
0.0534215
0.0425216
0.0453737
0.0477073
0.0609509
0.0339288
0.0634114
0.0746454
0.050695
0.0599081
0.057919
0.0714587
0.0217144
0.0277614
0.0493213
0.0451159
0.106108
0.0386281
0.0490356
0.111529
0.0757034
0.0244556
0.0359197
0.0781579
0.0631992
0.0755149
0.053064
0.0747155
0.0536907
0.0604611
0.0613224
0.0262298
0.0972463
0.0390442
0.0468621
0.0846155
0.067005
0.0300215
0.0895305
0.0430273
0.0607707
0.00765354
0.0707346
0.047698
0.0205222
0.0701324
0.0582502
0.0376978
0.0661117
0.053664
0.0373076
0.0434806
0.0157642
0.072448
0.0374745
0.0668522
0.0684436
0.083535
0.0350221
0.0616511
0.0377134
0.0452518
0.00655466
0.0167663
0.0690456
0.0165164
0.0835186
0.0664366
0.0636605
0.0758375
0.0853794
0.105167
0.0536962
0.0314118
0.0810377
0.064791
0.0542554
0.0726165
0.0660245
0.0500293
0.01796
0.0560635
0.0884459
0.0454288
0.0655224
0.0580246
0.0507098
0.0551908
0.0548538
0.0968723
0.0669165
0.0287055
0.0764082
0.0576767
0.0525262
0.081001
0.0861729
0.0518365
0.0362746
0.0187268
0.0648663
0.0837766
0.0487954
0.0666387
0.0825532
0.0178242
0.0648199
0.084191
0.0642426
0.0495626
0.0475321
0.0271506
0.0556678
0.0435588
0.0167993
0.0723701
0.0402743
0.0193401
0.0707111
0.0400161
0.112252
0.060108
0.0355854
0.0501145
0.0345147
0.0153581
0.066238
0.050195
0.0276034
0.0485134
0.0220843
0.0348959
0.0342849
0.0258601
0.0382346
0.0293261
0.0822256
0.0650586
0.0529776
0.0801612
0.0353742
0.0490403
0.0542776
0.0734363
0.0466776
0.0438453
0.0656642
0.0161625
0.0185501
0.0610957
0.0301541
0.051389
0.0449567
0.0320568
0.0508904
0.0523087
0.0272312
0.0664351
0.0682586
0.056085
0.0506702
0.0320819
0.05548
0.0385113
0.0416611
0.0340786
0.0310627
0.0446892
0.0314639
0.041069
0.0407956
0.0615902
0.03136
0.0532425
0.0668061
0.0678821
0.0743936
0.0571265
0.0585673
0.0197352
0.0651121
0.0701885
0.0524817
0.022323
0.0562034
0.040179
0.0423678
0.0669972
0.028582
0.0144032
0.0335891
0.0318174
0.0371594
0.0597469
0.0568451
0.0434104
0.042095
0.0299984
0.0670306
0.0817309
0.064113
0.0643646
0.0409531
0.0755213
0.0357655
0.0753954
0.0871116
0.0576192
0.0621033
0.0345245
0.0296264
0.0688495
0.0541985
0.0279956
0.0417759
0.0202805
0.0371886
0.0420285
0.0493665
0.0769396
0.083409
0.0331434
0.0472262
0.0546158
0.0858397
0.0604121
0.0525609
0.045502
0.0518364
0.0422458
0.0282212
0.0370412
0.0502648
0.0472013
0.0422619
0.0374278
0.0117438
0.0318948
0.0762512
0.06581
0.0529108
0.0576891
0.0726977
0.056505
0.0569005
0.0570115
0.0372037
0.0404008
0.0679895
0.0439011
0.0490526
0.0461064
0.0601685
0.0542743
0.0527829
0.0640246
0.0201953
0.0860469
0.0468976
0.0371862
0.0354202
0.0505554
0.0301197
0.0351335
0.0459604
0.0352739
0.0672555
0.0592802
0.0224756
0.0384633
0.0489783
0.0429703
0.0297442
0.0244937
0.0304761
0.0306671
0.0823015
0.0512001
0.0399114
0.0534338
0.0453872
0.0623308
0.0490685
0.0344664
0.0659168
0.0567762
0.0383563
0.0778496
0.0595449
0.0656006
0.0156716
0.0508823
0.0610476
0.0324268
0.0646758
0.0644746
0.0198284
0.06497
0.00780839
0.0444712
0.0325841
0.0429378
0.0344915
0.0902584
0.08905
0.0620307
0.052822
0.0308018
0.0520364
0.0419289
0.0309994
0.046527
0.0554941
0.0632609
0.0745459
0.031727
0.0712023
0.0174325
0.0801107
0.0752968
0.0236924
0.0723008
0.044895
0.0862215
0.0539231
0.0573796
0.0761275
0.0564035
0.0453636
0.0396159
0.0792235
0.0496124
0.0553487
0.0299297
0.0504538
0.042982
0.047332
0.0806276
0.101391
0.0169665
0.0605962
0.0371966
0.0405304
0.0209902
0.0416383
0.0374882
0.0434816
0.0295825
0.0271869
0.0269884
0.0780487
0.0618482
0.0537826
0.0185875
0.0464085
0.0797496
0.105333
0.0709364
0.0324979
0.0721324
0.0643086
0.0359115
0.0194403
0.0565608
0.035383
0.0688991
0.0377029
0.0201328
0.0474932
0.0839574
0.0680814
0.0793654
0.0380439
0.0493819
0.0687805
0.0560934
0.0303977
0.0280862
0.0402652
0.0824275
0.0503
0.022519
0.0300342
0.0388946
0.0457748
0.0518943
0.0379285
0.0686941
0.0735714
0.0805414
0.0072123
0.0294278
0.0428014
0.0356036
0.095831
0.0290989
0.0408982
0.0597314
0.0484261
0.0667108
0.0477012
0.061267
0.0422499
0.0506789
0.0648548
0.0511775
0.0229423
0.0495903
0.0553988
0.0956364
0.036266
0.0834958
0.0777067
0.0561937
0.0874587
0.0493999
0.0577131
0.0394879
0.0529868
0.0134276
0.0410097
0.0602505
0.0899697
0.0512686
0.0551923
0.0755185
0.050326
0.0399173
0.0763355
0.0422125
0.0612964
0.101546
0.071124
0.0842567
0.0655283
0.0715919
0.0537283
0.0571412
0.0116806
0.0418937
0.0932871
0.0668129
0.0758079
0.0635763
0.0467774
0.0508522
0.0397593
0.0484537
0.0765092
0.0625611
0.0676843
0.0412022
0.0437501
0.0645277
0.0624985
0.0216729
0.0415042
0.0388571
0.0410094
0.0497423
0.0208926
0.044808
0.0491976
0.0215933
0.0440478
0.0386278
0.0533485
0.0615761
0.0638341
0.0513157
0.0762672
0.0306833
0.020794
0.0518958
0.025888
0.067819
0.0253213
0.0687169
0.0281421
0.0262394
0.0394211
0.0451524
0.0604545
0.064534
0.0395769
0.0471986
0.0629138
0.0558753
0.0348016
0.0640055
0.021984
0.0493916
0.0917326
0.0695772
0.0526568
0.0414273
0.0675961
0.0834354
0.0703224
0.0452674
0.0581084
0.0378762
0.0424953
0.0281846
0.0382992
0.0542054
0.0414393
0.0768531
0.0316313
0.0471956
0.0583269
0.0908347
0.027659
0.0635989
0.0256657
0.0552937
0.0236906
0.0514333
0.0578812
0.0597736
0.0484637
0.0756402
0.0790275
0.0556772
0.0542847
0.0617521
0.048261
0.0201685
0.0227955
0.00748444
0.040372
0.0489975
0.0445789
0.0604142
0.0663256
0.066375
0.0407382
0.0928312
0.038736
0.0847332
0.0328029
0.0655016
0.0553829
0.0434594
0.0796064
0.0550867
0.0267603
0.0433833
0.0711509
0.0563654
0.0811015
0.0528371
0.0736038
0.0733678
0.102154
0.0565344
0.0242764
0.0871414
0.0599853
0.0877605
0.0335208
0.0604486
0.0246016
0.0569831
0.0595591
0.02357
0.0449912
0.0331501
0.0446119
0.068337
0.0519616
0.0640246
0.0486291
0.0518951
0.0721822
0.0640088
0.125405
0.0604485
0.0443836
0.034787
0.076441
0.0196535
0.0486086
0.0862568
0.0227373
0.0663359
0.0371382
0.0298214
0.0511653
0.0823108
0.0357204
0.0766823
0.0121368
0.052969
0.0567506
0.0958243
0.0683389
0.046417
0.0399547
0.0530152
0.0276055
0.0268637
0.0657109
0.0399493
0.0120197
0.020003
0.0798923
0.0591909
0.0599149
0.0349165
0.0317637
0.012039
0.0244066
0.0657056
0.0281589
0.0861597
0.0318849
0.051823
0.0752029
0.0689092
0.036137
0.0623659
0.0443185
0.0561907
0.0352952
0.0496812
0.0698538
0.0712011
0.0647342
0.0311939
0.0419053
0.0246061
0.0328363
0.0605822
0.101717
0.0809387
0.0195028
0.0612467
0.0549737
0.0756854
0.0838494
0.0320456
0.0457343
0.0297095
0.0272057
0.0283728
0.0268173
0.023879
0.0573792
0.0423433
0.0132287
0.101315
0.066215
0.0539426
0.0618869
0.0670187
0.0637173
0.0485847
0.0632071
0.0652495
0.0124388
0.027031
0.0607126
0.0262583
0.0345805
0.0166691
0.0278342
0.0406998
0.032274
0.0503184
0.0260466
0.0625964
0.087719
0.0276046
0.0787485
0.00992487
0.0197735
0.0849081
0.0305166
0.0354925
0.0657916
0.0753478
0.0640651
0.0607115
0.0637405
0.0481788
0.042703
0.0542934
0.0152617
0.0432267
0.0179989
0.061752
0.0271162
0.0932044
0.0386073
0.0614901
0.0650114
0.0464197
0.0359024
0.0862339
0.063499
0.0585355
0.077641
0.0840216
0.0536886
0.0514349
0.0288622
0.0301584
0.0679373
0.0428853
0.0268037
0.0952745
0.00698402
0.0631979
0.0407753
0.0357286
0.039312
0.0224701
0.0141882
0.0239253
0.0198516
0.0575466
0.0405556
0.0342108
0.0631388
0.0452351
0.0422758
0.0198919
0.0618371
0.0731106
0.0830003
0.0647215
0.0346155
0.0513269
0.0346568
0.0251175
0.0519578
0.0360028
0.0123656
0.0357728
0.0428737
0.0631782
0.0393278
0.0655072
0.0250621
0.0456722
0.0277497
0.0362119
0.0662352
0.0370943
0.0206143
0.0356306
0.00743793
0.0623311
0.0348313
0.0164784
0.0201313
0.0449186
0.0385086
0.0215868
0.0390657
0.0306102
0.0467205
0.0487454
0.0675836
0.00921691
0.020683
0.0514091
0.0892985
0.0285123
0.0240772
0.0392633
0.109766
0.0712146
0.0248548
0.0206461
0.0437977
0.0249341
0.0332169
0.0471052
0.0477605
0.0497332
0.0793292
0.0621726
0.0479273
0.0432088
0.0340686
0.101556
0.0446534
0.0224053
0.0298563
0.0349822
0.0457294
0.0285639
0.0274596
0.0317847
0.0163149
0.043083
0.0581549
0.0314661
0.00767182
0.064666
0.0792019
0.0393206
0.065715
0.0329162
0.0300055
0.0193881
0.0985171
0.043098
0.057194
0.0448983
0.0142963
0.029974
0.041609
0.0223824
0.0164536
0.0515132
0.0329327
0.00941725
0.0574352
0.0468121
0.0324376
0.020903
0.0219703
0.0224691
0.0498344
0.0451493
0.0421596
0.0354584
0.0185765
0.0660307
0.0266834
0.00987402
0.0363309
0.0433457
0.0272349
0.0113522
0.0392246
0.0829676
0.0445092
0.021974
0.0719847
0.0874516
0.0400434
0.0638137
0.0690358
0.0145338
0.0498011
0.09174
0.0833129
0.0608117
0.0276137
0.0449957
0.0486832
0.0430763
0.0251833
0.0410976
0.0673525
0.0308125
0.0625777
0.0671175
0.0109131
0.054121
0.0233406
0.0422068
0.0440581
0.0214805
0.0694645
0.0158015
0.0248318
0.0418405
0.0289002
0.0250786
0.0149483
0.0263908
0.0461591
0.038322
0.0658987
0.0562233
0.0547362
0.069072
0.0356165
0.016938
0.0583024
0.0260362
0.0619127
0.0273303
0.0415069
0.0728791
0.023367
0.02267
0.0272089
0.0250864
0.0236614
0.0381493
0.0403295
0.0526175
0.0579678
0.0400709
0.0689159
0.0372499
0.0156358
0.0124305
0.0257367
0.0360218
0.0513966
0.0229866
0.0427598
0.0501341
0.0188534
0.0326705
0.0534771
0.0509218
0.0410796
0.0631355
0.0238128
0.0626252
0.0438448
0.0635703
0.0292121
0.0262579
0.0609177
0.0609344
0.0606922
0.0441937
0.0395421
0.0501824
0.0313366
0.0478018
0.0338949
0.0569168
0.0493754
0.0432151
0.0500055
0.0422836
0.0407599
0.065824
0.0319766
0.0688122
0.0638132
0.00658039
0.0257415
0.0123588
0.0406885
0.0256471
0.050594
0.0474698
0.0543194
0.0614484
0.0658398
0.0165232
0.0518102
0.033237
0.0522109
0.0549275
0.0501585
0.0617585
0.0415657
0.0549408
0.070833
0.0292068
0.0319886
0.0804298
0.0530514
0.11863
0.0282689
0.0745724
0.0584172
0.0484628
0.0461139
0.054453
0.0368069
0.0501989
0.0472956
0.0326853
0.0568769
0.0397301
0.0239184
0.0719451
0.0717252
0.0192838
0.0278854
0.0425124
0.0677965
0.0149592
0.0393545
0.0296889
0.0219447
0.030561
0.0303319
0.0391645
0.0631683
0.0636263
0.0206019
0.0446564
0.0337909
0.0889286
0.0411322
0.038391
0.00396356
0.0584975
0.0969253
0.0292616
0.0507956
0.0618387
0.0607954
0.0221195
0.0341969
0.0292379
0.0419399
0.0422321
0.073623
0.0512132
0.0206236
0.0300753
0.0267066
0.0221657
0.0362033
0.00836346
0.0276538
0.0575337
0.0134925
0.0427536
0.0288279
0.0390865
0.0467022
0.0415887
0.0677148
0.0419605
0.0361637
0.0395346
0.0541355
0.0480794
0.0314284
0.0325815
0.0152453
0.0705597
0.0378541
0.0681691
0.0436227
0.0948432
0.0667403
0.038131
0.0313551
0.0808856
0.0368994
0.0757739
0.0206154
0.00910913
0.0481148
0.0559057
0.0324678
0.0405353
0.0397581
0.0194475
0.04178
0.0339843
0.0208038
0.0404383
0.0340257
0.0593778
0.0285911
0.0137013
0.136646
0.0341294
0.0290631
0.0410237
0.0312151
0.0385196
0.0327211
0.0405093
0.0291714
0.0626545
0.0229053
0.0502653
0.0741611
0.0565855
0.0564846
0.0685775
0.0673565
0.0194174
0.0232382
0.0674101
0.0124827
0.0276444
0.0393258
0.0446123
0.060039
0.0374524
0.0435352
0.0499634
0.0142715
0.025631
0.0241787
0.0132793
0.0399705
0.0613251
0.063887
0.0556799
0.029387
0.0258579
0.0650235
0.0485247
0.0435004
0.0184346
0.0312723
0.0624027
0.0566037
0.041938
0.0693009
0.0566563
0.0463836
0.0829558
0.0484333
0.0384364
0.0635493
0.0528352
0.0980087
0.0372871
0.0352788
0.0498813
0.0251798
0.0356179
0.0357817
0.0445683
0.0648831
0.0431946
0.0421936
0.0236819
0.00681858
0.0285544
0.00649948
0.0200607
0.042166
0.0129414
0.0462858
0.0369924
0.0494161
0.064352
0.0490824
0.0363424
0.0402846
0.0416464
0.00984972
0.0525247
0.0450127
0.029978
0.0617915
0.0479303
0.0330134
0.028201
0.0393718
0.0443843
0.0299143
0.0681853
0.0530468
0.118142
0.0270167
0.0244952
0.0561632
0.0259298
0.0149374
0.0333711
0.055092
0.030178
0.0345095
0.033452
0.00213996
0.0542456
0.0367986
0.018225
0.0245512
0.0511276
0.0451517
0.0248591
0.0559525
0.037109
0.0419461
0.0379843
0.0336494
0.0794893
0.0396805
0.0362245
0.0780466
0.00799633
0.0734753
0.06904
0.0861155
0.0305228
0.0329204
0.0300133
0.0558926
0.0780031
0.0628938
0.0364059
0.0364291
0.0912694
0.0642211
0.0242529
0.0681825
0.0211451
0.0542101
0.072659
0.00523243
0.0656925
0.0575669
0.0472682
0.0326169
0.0105774
0.0235661
0.0501149
0.021752
0.0365896
0.0131251
0.0809885
0.105587
0.034805
0.022397
0.0457203
0.06149
0.0351836
0.0474728
0.0341395
0.045587
0.0789122
0.0157303
0.0261909
0.0174334
0.0752824
0.102649
0.0701753
0.060972
0.101981
0.0775026
0.0755958
0.0247379
0.0115527
0.0521932
0.0598359
0.0248363
0.0559999
0.0228771
0.0567962
0.00972564
0.0275938
0.0139195
0.0166043
0.0458307
0.051329
0.0425474
0.00510777
0.0116995
0.102786
0.0604618
0.0274157
0.0274997
0.058344
0.0271918
0.0482213
0.0541095
0.0385533
0.0429008
0.0449561
0.0421744
0.030376
0.024735
0.0385478
0.0625873
0.0322084
0.0841384
0.0527618
0.0723129
0.0730468
0.0195544
0.0348082
0.052133
0.0305233
0.0610536
0.0558617
0.0270888
0.0475384
0.0380743
0.00923189
0.0150344
0.0482093
0.00109233
0.023776
0.0298785
0.0413326
0.0299425
0.0874908
0.0822807
0.0298393
0.0377865
0.0273267
0.0245291
0.0564538
0.0381702
0.0375128
0.0535678
0.0816912
0.031679
0.0691266
0.012587
0.0563481
0.0367262
0.0634578
0.0921524
0.0562826
0.0474855
0.0402959
0.0161602
0.0450825
0.030648
0.0129522
0.0526859
0.0305138
0.0237283
0.0730272
0.0363823
0.0418736
0.0210011
0.0302524
0.0218862
0.0130809
0.0108469
0.0622326
0.0236347
0.0142009
0.0270611
0.0216913
0.0210061
0.0535881
0.0234979
0.0267183
0.0444551
0.0398185
0.0318189
0.0467699
0.0503237
0.0411745
0.0276253
0.0100101
0.0348117
0.070163
0.089602
0.0386513
0.0570171
0.0271376
0.0221165
0.0137683
0.0306726
0.0395814
0.0169566
0.0459381
0.0584204
0.0389566
0.00848174
0.0456422
0.0619926
0.032535
0.0377312
0.00810703
0.0232921
0.0174786
0.00575916
0.0191406
0.0269391
0.0296969
0.0443624
0.0308751
0.0527966
0.0266533
0.0283448
0.0371573
0.0685254
0.128962
0.0592815
0.0294683
0.0812988
0.0849934
0.050408
0.044406
0.0418683
0.0933354
0.0414807
0.0410521
0.0261186
0.0220252
0.0442521
0.0454835
0.0454681
0.0344538
0.0356758
0.0342471
0.032127
0.00792093
0.0325673
0.0324075
0.0586591
0.0343246
0.0524747
0.0140004
0.0524813
0.0308007
0.0172559
0.0248238
0.0445297
0.0308898
0.030321
0.0274257
0.0708841
0.0532047
0.0275969
0.105826
0.0395165
0.0173034
0.0671842
0.0081922
0.029415
0.051566
0.101384
0.0673057
0.0071462
0.0207124
0.0246872
0.0355749
0.0290654
0.0278884
0.0556775
0.0673114
0.0896866
0.0523232
0.0437651
0.0617775
0.0928761
0.0717996
0.0123936
0.043652
0.0301119
0.0456223
0.0252739
0.0290793
0.0380752
0.0523332
0.0299622
0.0354871
0.0318761
0.0100093
0.0534772
0.0538406
0.0490846
0.0152617
0.043949
0.0670709
0.0688711
0.0475364
0.0272214
0.0370356
0.0233895
0.054213
0.0524083
0.0253652
0.0252588
0.0508465
0.0187761
0.0300566
0.0315688
0.035569
0.061138
0.0266311
0.0515531
0.0503167
0.0711154
0.0449734
0.0437951
0.0463913
0.0411842
0.0327966
0.0352002
0.0366799
0.0369208
0.0504001
0.0143774
0.0357783
0.0233263
0.0340789
0.040146
0.0383841
0.0698016
0.0428966
0.0236737
0.0651954
0.101686
0.062763
0.0588212
0.0627154
0.0349558
0.0702868
0.00865581
0.0221595
0.0495076
0.0252124
0.0425155
0.0511985
0.0301021
0.0818387
0.0708795
0.0339739
0.0612717
0.0367349
0.0191982
0.0566896
0.0479671
0.030823
0.0457958
0.0604076
0.0296526
0.0366932
0.0339504
0.0690857
0.0252023
0.0513707
0.0489471
0.0558244
0.0867359
0.0182652
0.0601642
0.029375
0.0306726
0.0565948
0.0371795
0.0330626
0.0159723
0.0338693
0.0334925
0.0502566
0.0167292
0.0315922
0.0200428
0.0338235
0.0534651
0.0479026
0.0386677
0.0316599
0.0350724
0.0420693
0.045691
0.0514301
0.0371134
0.0756517
0.00980295
0.0324184
0.015302
0.032212
0.0451907
0.0313907
0.047351
0.0459763
0.03331
0.0466132
0.0381724
0.0417096
0.00959158
0.0437632
0.0609963
0.016739
0.113021
0.100206
0.066927
0.0467823
0.0185354
0.0580805
0.00783088
0.0400766
0.0501817
0.00954774
0.0180988
0.0073692
0.046964
0.046319
0.0680546
0.0187385
0.0386885
0.0142449
0.0524978
0.0737944
0.0673764
0.024514
0.070609
0.0450678
0.019559
0.0456458
0.0475907
0.0363048
0.0373187
0.0356104
0.0450628
0.0451932
0.0337796
0.0524913
0.0133058
0.0435795
0.0564175
0.0709309
0.0532646
0.0568472
0.0338518
0.0058739
0.0224499
0.0310749
0.0491314
0.0301856
0.0685544
0.0504999
0.0591445
0.0585428
0.073509
0.0354724
0.0413049
0.0241846
0.0248167
0.0364967
0.0353231
0.0282116
0.0320643
0.048061
0.0586177
0.0457499
0.0415772
0.0113948
0.0250616
0.0557558
0.0248346
0.0445401
0.0607302
0.0123918
0.0760172
0.0492767
0.0333721
0.0231408
0.041051
0.042029
0.0307242
0.0294717
0.0146038
0.0538422
0.0137544
0.0518699
0.0446211
0.0288807
0.0457851
0.0634461
0.0245733
0.0436248
0.0618541
0.0273131
0.0363648
0.0876232
0.0739989
0.0402487
0.0264815
0.00607372
0.024474
0.0450335
0.0918303
0.0221823
0.0160343
0.0120772
0.0506575
0.0303258
0.0243807
0.0387281
0.0121462
0.0347575
0.0398003
0.0730874
0.0159926
0.0513441
0.0228346
0.0282958
0.0248976
0.041072
0.0770375
0.0402361
0.0526308
0.0758308
0.0319796
0.0293082
0.0117462
0.0548138
0.034648
0.0489778
0.0133376
0.0400443
0.0642707
0.0884011
0.00392165
0.0366561
0.0524586
0.0289044
0.0380472
0.0540551
0.0219668
0.0288609
0.0505523
0.0413783
0.0396931
0.028196
0.0530228
0.0178985
0.0585724
0.043881
0.0375143
0.0467704
0.0330265
0.0651432
0.0597774
0.0596921
0.0644333
0.0397265
0.0548234
0.0506685
0.0694858
0.0410781
0.0677698
0.0251145
0.039866
0.043478
0.0368656
0.0274053
0.0468388
0.0219108
0.0521011
0.0145937
0.0262521
0.0891585
0.0381038
0.0594628
0.0647101
0.0365605
0.0111725
0.0181048
0.0461236
0.0249247
0.0290948
0.0341595
0.0350025
0.0569709
0.0445317
0.0310355
0.0448635
0.0306794
0.0448369
0.0276471
0.0322021
0.0163998
0.0330655
0.0208172
0.025181
0.0850593
0.061947
0.0244242
0.0408621
0.0187272
0.045581
0.0514666
0.0518589
0.0443367
0.0461573
0.0554056
0.0485892
0.0402782
0.0162579
0.0498337
0.0520167
0.0885066
0.0222985
0.0717742
0.0329453
0.0410972
0.0264357
0.0320266
0.0365913
0.0443653
0.0473576
0.0485722
0.0386044
0.0308871
0.02469
0.0518706
0.0189796
0.0736865
0.0190942
0.0777516
0.0797115
0.0139433
0.0746647
0.0539566
0.0473768
0.0259493
0.0394655
0.0281677
0.0326015
0.0292543
0.0408808
0.0575428
0.0359456
0.0393949
0.014295
0.0330108
0.0323961
0.0391477
0.016637
0.0475703
0.0220467
0.0394078
0.0940587
0.0202489
0.0357198
0.0379118
0.0453388
0.0187159
0.0208509
0.0362233
0.0446976
0.0422377
0.0421205
0.034785
0.0735356
0.0599725
0.0212738
0.0412285
0.0537952
0.0461983
0.0155747
0.0426627
0.0323205
0.0528443
0.0437247
0.0411922
0.0333306
0.0277119
0.0512835
0.028221
0.0265559
0.0324147
0.0278119
0.0230355
0.0689295
0.0271751
0.0424898
0.0579204
0.0503961
0.0468611
0.0870932
0.0446877
0.0672979
0.0287593
0.0505206
0.0494513
0.0360437
0.0720416
0.0329001
0.0101127
0.0416142
0.0821817
0.0842138
0.0283908
0.0564273
0.0462583
0.048011
0.0370851
0.0414835
0.020274
0.012822
0.0395601
0.0447634
0.0606791
0.03869
0.0636554
0.0898894
0.0286838
0.0678762
0.0404982
0.0506582
0.0526033
0.00653065
0.0775485
0.0501946
0.073419
0.0139036
0.0107799
0.0244986
0.0294185
0.0216024
0.0268019
0.040933
0.0337363
0.0499787
0.0330308
0.0388914
0.0585932
0.0640851
0.0682021
0.0592776
0.0843602
0.0598916
0.111643
0.0462436
0.0234598
0.0359985
0.0224794
0.0269181
0.039169
0.0341356
0.0307865
0.0297246
0.054844
0.0319743
0.0347632
0.0699195
0.0490521
0.01707
0.0493454
0.0417687
0.0573715
0.126528
0.167799
0.0327023
0.0456309
0.0442687
0.0320565
0.0541373
0.0409306
0.00877581
0.0576622
0.0360624
0.0201929
0.0073772
0.0286061
0.0614184
0.0627967
0.039758
0.0243741
0.0611078
0.0421599
0.111375
0.0523704
0.0412116
0.0632623
0.0262174
0.0173417
0.0357114
0.0366616
0.0147877
0.0103814
0.0175227
0.0168512
0.0328613
0.0175494
0.0414819
0.0243562
0.022409
0.0271334
0.0806454
0.0678546
0.0465186
0.0371032
0.0292515
0.0219695
0.0326298
0.0532405
0.0557093
0.0639047
0.052746
0.0326178
0.0347384
0.0483329
0.0459129
0.0355383
0.0254174
0.0292268
0.0626542
0.0884153
0.101729
0.0432597
0.0315554
0.0564145
0.0194048
0.0494884
0.0166788
0.0172505
0.0471707
0.0257366
0.0230671
0.0606115
0.0153232
0.0701735
0.053684
0.0338916
0.0682642
0.0370499
0.136391
0.0560247
0.028787
0.0296662
0.0494292
0.056121
0.0578478
0.0400103
0.0334073
0.0511991
0.043968
0.0453708
0.0554852
0.0671513
0.0380213
0.0195624
0.0518292
0.0775061
0.0776496
0.0534609
0.0702902
0.0743088
0.0463868
0.0584726
0.0700832
0.0452604
0.0397172
0.0513871
0.0232617
0.00855258
0.031372
0.0211551
0.0541997
0.0336025
0.0361776
0.0218521
0.0130103
0.0412905
0.0676421
0.0248699
0.0777619
0.0388653
0.0280747
0.0619182
0.0427556
0.0763054
0.0309682
0.0327617
0.0271077
0.0564385
0.0198292
0.0128839
0.0273045
0.070158
0.0520386
0.0132991
0.0463652
0.0825329
0.0449827
0.0864834
0.0423995
0.072632
0.0767718
0.0412112
0.0247566
0.0136385
0.022285
0.0365206
0.0111498
0.0608145
0.0445717
0.0155774
0.0384453
0.0564849
0.0546649
0.0489633
0.0663777
0.0457744
0.077827
0.0758573
0.0487081
0.0542201
0.0305769
0.075482
0.0294829
0.0460007
0.00645211
0.0110107
0.0240229
0.0493496
0.0341605
0.0636567
0.0548661
0.0300839
0.0757712
0.0841798
0.0814006
0.0595689
0.0383181
0.0354095
0.0432929
0.0380392
0.0213038
0.0369075
0.0309977
0.0587655
0.0499827
0.0521188
0.0475732
0.0328424
0.0531351
0.0601703
0.0497702
0.0681037
0.0311843
0.0239764
0.010811
0.0444618
0.0248147
0.0550908
0.0396841
0.0744501
0.0224796
0.0511558
0.0370274
0.0834349
0.0558238
0.0363818
0.059794
0.109015
0.0602546
0.0806556
0.0664024
0.0483744
0.0447157
0.117137
0.103305
0.0132692
0.042783
0.0303841
0.0236933
0.0388027
0.0365926
0.0500792
0.0422271
0.0177626
0.0600269
0.0295596
0.0517249
0.023643
0.0599313
0.0227179
0.0823037
0.0632854
0.0172483
0.0241794
0.0306274
0.0644137
0.0362448
0.0254759
0.0240115
0.0616928
0.0316651
0.0563685
0.0318358
0.0382542
0.0603296
0.016937
0.0451783
0.0408601
0.0364657
0.0336534
0.0215789
0.05986
0.0545288
0.0687421
0.0486134
0.0144698
0.0339479
0.0275309
0.0592905
0.0618898
0.0760488
0.0678638
0.0241214
0.054556
0.0555318
0.073952
0.0784294
0.0760296
0.0266264
0.0756886
0.0422228
0.0727074
0.0452858
0.0262659
0.0252245
0.0193678
0.0483459
0.0217744
0.0483195
0.0182836
0.0107383
0.0511526
0.0518285
0.0688959
0.0465116
0.0354891
0.0410436
0.0105745
0.0910454
0.053446
0.105381
0.0441583
0.0100208
0.0148146
0.0198649
0.0378807
0.0377449
0.0448261
0.0177854
0.0564969
0.056571
0.0424014
0.0554869
0.0368532
0.0451509
0.0452924
0.0231658
0.0215405
0.0709254
0.00293133
0.0132319
0.0330222
0.0231369
0.0300289
0.0286225
0.0118384
0.0549902
0.0253055
0.0470009
0.0308329
0.0525992
0.0529796