/*--------------------------------*- C++ -*----------------------------------*\
| =========                 |                                                 |
| \\      /  F ield         | foam-extend: Open Source CFD                    |
|  \\    /   O peration     | Version:     3.1                                |
|   \\  /    A nd           | Web:         http://www.extend-project.de       |
|    \\/     M anipulation  |                                                 |
\*---------------------------------------------------------------------------*/
FoamFile
{
    version     2.0;
    format      ascii;
    class       volScalarField;
    location    "172800";
    object      DEpsilonSum;
}
// * * * * * * * * * * * * * * * * * * * * * * * * * * * * * * * * * * * * * //

dimensions      [0 0 0 0 0 0 0];

internalField   nonuniform List<scalar> 
21211
(
0.000318322
0.000318425
0.000318537
0.000318488
0.000317602
0.000319148
0.000321764
0.00032892
0.000369507
0.000382177
0.000382222
0.000382315
0.000382108
0.000381572
0.000382065
0.000383164
0.000387884
0.000435515
0.000310725
0.000310801
0.000310832
0.000310897
0.000311101
0.000311884
0.000314317
0.000323386
0.00036968
0.000368672
0.000368704
0.000368716
0.000368737
0.00036872
0.000368842
0.000369488
0.000374638
0.000421271
0.00032975
0.000329912
0.000329954
0.000330058
0.000330391
0.000331232
0.0003338
0.000343528
0.000390048
0.000380108
0.000380151
0.000380162
0.000380216
0.00038028
0.000380472
0.000381287
0.000386742
0.000428969
0.000341585
0.000341735
0.000341787
0.000341902
0.000342256
0.000343132
0.000345848
0.000356034
0.000404374
0.000389784
0.000389871
0.00038989
0.000389924
0.000389978
0.000390115
0.000390753
0.000395612
0.000438556
0.000358363
0.000358602
0.00035865
0.000358747
0.000359132
0.000360019
0.000362705
0.000373261
0.000425837
0.000386212
0.0003863
0.000386294
0.000386308
0.000386325
0.000386405
0.000386946
0.000392035
0.000435833
0.00039221
0.000392387
0.00039246
0.000392616
0.000392948
0.000393904
0.000396961
0.000407431
0.000456842
0.000399225
0.000399308
0.000399307
0.000399307
0.000399327
0.000399443
0.000400182
0.000405602
0.000447651
0.000385622
0.000385853
0.000385932
0.000386084
0.000386644
0.000387824
0.000391066
0.000404202
0.000467975
0.000417767
0.00041788
0.000417885
0.000417909
0.000418023
0.000418335
0.000419501
0.0004268
0.000477714
0.000440104
0.000440181
0.000440176
0.000440312
0.000440762
0.000441888
0.000445404
0.000456542
0.000507598
0.000436681
0.000436727
0.000436682
0.000436674
0.000436735
0.000436964
0.000438051
0.00044482
0.000490828
0.000435814
0.000435795
0.000435861
0.000436051
0.000436515
0.000437945
0.000441387
0.000454676
0.000518389
0.000466077
0.000466132
0.000466148
0.000466185
0.000466275
0.000466546
0.00046771
0.000475601
0.000526378
0.000499478
0.000499436
0.000499824
0.000500104
0.000500593
0.000502184
0.000503752
0.000519972
0.000584373
0.000489123
0.000489189
0.000489302
0.000489414
0.000489586
0.000489827
0.000491022
0.00050154
0.000556445
0.000497341
0.000497187
0.00049741
0.000497639
0.000498191
0.000501095
0.000516664
0.000526499
0.000587959
0.000500129
0.000500089
0.000500137
0.000500205
0.000500429
0.000502569
0.000518418
0.000517263
0.000575786
0.000578024
0.000577965
0.000578041
0.000578226
0.000578698
0.000578688
0.000493447
0.000591976
0.000666764
0.000535853
0.000535799
0.00053584
0.000535967
0.000536318
0.000536716
0.000537749
0.00055134
0.000611663
0.000592419
0.000592583
0.000592661
0.000592847
0.000593298
0.000594148
0.000595874
0.000610702
0.000681321
0.000532927
0.000532851
0.000532909
0.000533046
0.000533364
0.000534183
0.000537417
0.000552394
0.000621792
0.000617348
0.00061767
0.000617768
0.000617984
0.000618537
0.000619955
0.000623906
0.000637051
0.000707472
0.000552951
0.000552918
0.000552998
0.000553193
0.000553677
0.000554983
0.000559137
0.000575624
0.000648424
0.000664814
0.000665116
0.000665226
0.000665471
0.000666081
0.000667595
0.000671494
0.000683695
0.000746988
0.000582267
0.000582217
0.000582326
0.000582589
0.000583232
0.000584899
0.000589762
0.00060669
0.000671418
0.000678949
0.000679225
0.000679346
0.000679606
0.000680248
0.00068184
0.000686005
0.000699655
0.000772386
0.000598808
0.000598774
0.000598897
0.000599202
0.000599937
0.000601807
0.000607127
0.000625275
0.000693748
0.000688278
0.000688535
0.000688667
0.000688957
0.000689654
0.000691325
0.000695502
0.000708881
0.000787853
0.000613633
0.000613564
0.000613707
0.000614068
0.000614934
0.000617113
0.000623142
0.000642606
0.000714753
0.000698739
0.000699002
0.000699143
0.000699442
0.00070015
0.000701807
0.000705856
0.000718637
0.00079284
0.000625428
0.000625343
0.000625499
0.000625894
0.000626835
0.000629181
0.000635614
0.000656005
0.000729403
0.000693791
0.00069398
0.000694124
0.000694443
0.00069518
0.000696847
0.000700675
0.000711874
0.000780854
0.000633647
0.000633551
0.000633734
0.000634193
0.000635269
0.000637894
0.000644844
0.00066596
0.000742013
0.000468917
0.0004689
0.000468992
0.000469436
0.000466344
0.000469821
0.000471993
0.000472429
0.000483913
0.000416503
0.000416112
0.000418217
0.000419401
0.00034709
0.000425313
0.000419639
0.00035641
0.000391965
0.000354614
0.000348566
0.000404294
0.000396018
0.000356895
0.000348588
0.000349121
0.000364192
0.000370482
0.000420298
0.00042049
0.000466607
0.000470172
0.000469358
0.000422166
0.000422618
0.000469823
0.000467218
0.000454104
0.000454078
0.000453564
0.000453632
0.000453867
0.00045469
0.000456233
0.00045801
0.000447582
0.000393205
0.000393152
0.000393106
0.000393083
0.000393268
0.000393794
0.000395009
0.000397383
0.000395748
0.000382507
0.000382473
0.000382471
0.00038242
0.000382632
0.000383245
0.000384833
0.000387966
0.000389267
0.000366214
0.000366192
0.000366224
0.00036624
0.000366437
0.000367042
0.000368659
0.000371569
0.000366601
0.000336714
0.000336727
0.000336749
0.000336848
0.000337078
0.000337631
0.000339108
0.000341936
0.000354574
0.0003724
0.000372398
0.000372429
0.000372543
0.000372669
0.000373316
0.000375004
0.000377782
0.000380377
0.000320334
0.000320358
0.000320399
0.000320509
0.000320861
0.000321661
0.000323589
0.000328786
0.000363672
0.000390144
0.000390109
0.000390151
0.000390275
0.00039061
0.000391499
0.000393612
0.000398361
0.00042535
0.000397802
0.00039781
0.000397859
0.000398009
0.000398385
0.00039936
0.000401771
0.000406744
0.000430756
0.00042016
0.000420154
0.000420208
0.00042037
0.000420779
0.000421797
0.000424103
0.000428294
0.000444337
0.000450386
0.000450369
0.00045043
0.000450602
0.000451023
0.000452014
0.000454133
0.000457764
0.000472554
0.000464813
0.000464795
0.000464864
0.000465052
0.000465502
0.00046654
0.000468744
0.000472704
0.000488892
0.000463562
0.000463546
0.00046363
0.000463848
0.000464355
0.00046551
0.000467957
0.000472567
0.00048929
0.000431633
0.000431603
0.000431689
0.000431912
0.000432429
0.000433612
0.000436205
0.000441778
0.000471061
0.000428764
0.000428738
0.000428838
0.000429084
0.000429645
0.000430901
0.000433516
0.000438154
0.00045568
0.000346104
0.000346284
0.000346608
0.000346371
0.000344709
0.000345669
0.000346798
0.000348971
0.000391975
0.000321803
0.000322084
0.000323582
0.000325014
0.000325551
0.000323619
0.000324609
0.000334531
0.000377461
0.00032262
0.000321944
0.000318289
0.000318617
0.000317929
0.000322013
0.000322197
0.000322744
0.000385199
0.000335458
0.000335679
0.000335566
0.00033581
0.000335763
0.000336613
0.000338031
0.000344691
0.000400696
0.000321148
0.000321066
0.000320904
0.000320928
0.000321095
0.000321661
0.000322827
0.000328238
0.000380531
0.000299534
0.000299502
0.000299527
0.000299609
0.000299719
0.000299961
0.000300666
0.000305035
0.000350389
0.000293864
0.00029384
0.000293855
0.000293892
0.000293969
0.000294154
0.000294785
0.000298914
0.000356216
0.000293083
0.000293079
0.00029308
0.000293088
0.000293119
0.000293205
0.000293519
0.000296984
0.000352858
0.000293466
0.00029345
0.000293455
0.000293473
0.000293505
0.000293588
0.000293938
0.000297827
0.000366752
0.000307635
0.000307645
0.000307663
0.000307699
0.00030778
0.000308013
0.000308736
0.000313431
0.000371741
0.000315639
0.000315638
0.000315653
0.000315675
0.00031574
0.000315899
0.000316607
0.000322337
0.000388446
0.000334572
0.000334556
0.000334572
0.00033461
0.000334697
0.000334916
0.000335738
0.000342249
0.000405149
0.00034315
0.000343136
0.000343163
0.000343227
0.000343375
0.000343765
0.000345104
0.000352758
0.000413758
0.000357607
0.00035759
0.000357626
0.000357719
0.00035794
0.000358505
0.000360278
0.000368176
0.000420403
0.000373793
0.000373784
0.000373837
0.000373973
0.00037429
0.000375061
0.000377232
0.000385493
0.000432016
0.000379978
0.000379978
0.000380042
0.000380205
0.000380576
0.000381454
0.000383809
0.000392048
0.000433444
0.000379821
0.000379854
0.000379938
0.000380146
0.000380624
0.00038176
0.000384764
0.000394305
0.000433352
0.000369895
0.000369923
0.000370004
0.000370205
0.000370662
0.000371751
0.000374733
0.000385252
0.000434562
0.000369848
0.000369925
0.000370038
0.000370304
0.000370905
0.000372295
0.0003758
0.000386312
0.000430068
0.00032492
0.000326486
0.000309661
0.00029648
0.000293899
0.000280817
0.000265931
0.000262922
0.000256934
0.000251815
0.000246901
0.000242795
0.000243656
0.000248256
0.000252149
0.000247262
0.000255864
0.000256553
0.000252433
0.000323303
0.000285788
0.000279502
0.000270273
0.000255391
0.000246192
0.000239406
0.000232222
0.000226766
0.000219384
0.000208396
0.00020704
0.000222059
0.000233623
0.00024753
0.000248575
0.000234417
0.000231353
0.000239163
0.000325345
0.000324903
0.000320151
0.000286052
0.000272767
0.000266623
0.000253879
0.000245407
0.000240172
0.000236187
0.000236983
0.000239151
0.000247277
0.000256057
0.000264954
0.000262889
0.000235541
0.000235195
0.000244597
0.000312458
0.000282974
0.00025525
0.000255609
0.000251756
0.000243756
0.000237708
0.000232068
0.000227443
0.00022588
0.000212717
0.000203898
0.000209166
0.000234127
0.000247085
0.000248077
0.000237646
0.000221126
0.000220236
0.000337124
0.000300377
0.000291922
0.000287688
0.000264843
0.000251781
0.00024571
0.000237168
0.000230308
0.000225997
0.000227676
0.000234433
0.000248485
0.000262776
0.000262594
0.000258177
0.000242902
0.000220422
0.000231749
0.000300153
0.000288567
0.000257665
0.000229035
0.000234385
0.000240442
0.00023685
0.000232848
0.000230081
0.000231379
0.000221721
0.000213098
0.000204721
0.000222889
0.000236891
0.000234821
0.000231747
0.000225962
0.000216051
0.000327198
0.000309161
0.000268077
0.000259264
0.000260276
0.000252331
0.000245341
0.000247429
0.00023796
0.000227111
0.000225636
0.000235226
0.000246152
0.000254734
0.000251835
0.000243674
0.000243324
0.000235639
0.00022495
0.000282236
0.000276598
0.000260284
0.000230363
0.000219898
0.000220959
0.000239553
0.000239652
0.000236306
0.000223935
0.00022731
0.000215718
0.00023962
0.000220101
0.000216537
0.000220817
0.000221924
0.000224687
0.000225784
0.000310604
0.000301206
0.000284511
0.00023731
0.00024273
0.000261177
0.000245827
0.000253344
0.000265395
0.000250966
0.000243656
0.000245011
0.00023961
0.000238687
0.000240619
0.000238037
0.000233455
0.00024
0.000243197
0.000276529
0.000256223
0.000241051
0.000254773
0.00024524
0.000223509
0.000215101
0.00024123
0.000244908
0.000240362
0.000217871
0.000252947
0.000239993
0.000234234
0.000212983
0.000203998
0.000215343
0.000220272
0.000229127
0.000297134
0.000293954
0.000285039
0.000260897
0.000244306
0.000261266
0.000264996
0.00025302
0.000259197
0.000273304
0.000265129
0.000258972
0.000242973
0.000221907
0.000229014
0.000238967
0.000241548
0.000247093
0.000256925
0.000283408
0.000271802
0.000255742
0.000252457
0.00025349
0.000239281
0.000218839
0.000220437
0.000227828
0.000250636
0.000252283
0.00024666
0.00025002
0.000243213
0.000225155
0.000196947
0.000199102
0.000215556
0.000230385
0.000312666
0.000301939
0.00029988
0.000292351
0.000283305
0.000261258
0.000258057
0.000276279
0.000265373
0.000261026
0.000278284
0.000267176
0.000243607
0.000222564
0.000215455
0.00023642
0.000248955
0.000259069
0.000277937
0.000298998
0.000282309
0.000268833
0.000252235
0.000230848
0.000261637
0.000249401
0.000224601
0.000231058
0.000243671
0.000261638
0.000255518
0.000240914
0.00023366
0.00023271
0.000210153
0.000196569
0.000208358
0.000229418
0.000334078
0.000317874
0.000306733
0.000297867
0.000298175
0.00028563
0.000244477
0.000262443
0.000279314
0.000270539
0.000267019
0.000269982
0.000240527
0.000222619
0.00021757
0.000233403
0.000251735
0.000274774
0.00029118
0.000304593
0.000286052
0.000274491
0.000257262
0.000237939
0.000225904
0.000270831
0.000260618
0.000241462
0.000232291
0.000238838
0.000247057
0.000240712
0.000224273
0.000217886
0.000218416
0.000214126
0.000217076
0.00023732
0.000342972
0.000325419
0.000308271
0.000291278
0.000284061
0.000284019
0.000279496
0.000254442
0.000274259
0.000278374
0.00025172
0.000243126
0.00024838
0.000226562
0.000230075
0.000247931
0.000267245
0.000280811
0.00028205
0.000306399
0.000290527
0.000265472
0.000272829
0.000262207
0.000243463
0.000239222
0.000289749
0.000268725
0.000235081
0.000218796
0.000226753
0.000238697
0.000237713
0.000224436
0.000217728
0.000226331
0.000242675
0.000258354
0.000341041
0.000322908
0.000308467
0.00029375
0.000284124
0.000286174
0.000292188
0.000286557
0.00025627
0.000252189
0.000261509
0.000234654
0.000245674
0.000250652
0.00025077
0.000261329
0.00027208
0.000271015
0.00026752
0.000310975
0.00029247
0.000275265
0.000258806
0.000279947
0.000278011
0.000259085
0.000248293
0.000276072
0.000255333
0.000217545
0.000219929
0.000223052
0.000242054
0.00023599
0.000236879
0.000247535
0.000263197
0.00026859
0.000337441
0.000320003
0.000304234
0.000292812
0.000291434
0.000300281
0.000300632
0.000289426
0.000265193
0.000229696
0.000241665
0.000268845
0.000252406
0.000270817
0.000262543
0.000262468
0.000262954
0.000260841
0.000265543
0.000317399
0.000300631
0.000277421
0.000286545
0.000292646
0.000287224
0.000265553
0.000250128
0.000239252
0.000248203
0.000239831
0.000209768
0.000214817
0.000241684
0.000249136
0.000252983
0.000260824
0.000264774
0.000255634
0.00035326
0.000331222
0.00030983
0.000299116
0.000305673
0.000307699
0.000288758
0.000268954
0.00026833
0.000261482
0.000233187
0.000262919
0.000279697
0.000268603
0.000263518
0.000255789
0.000256032
0.000260192
0.000260123
0.000326355
0.00031194
0.000298764
0.000301125
0.000295446
0.000268778
0.000274439
0.000261755
0.000230887
0.000223891
0.000248184
0.000233089
0.00022
0.000231241
0.00025599
0.000258866
0.000258173
0.000251097
0.000247765
0.000374675
0.000356138
0.000339509
0.000327803
0.000315981
0.00029463
0.000280971
0.000263792
0.000251972
0.000268518
0.000266174
0.000249788
0.000276535
0.000280026
0.000263758
0.00025944
0.000260996
0.00026591
0.000264501
0.000340974
0.00032654
0.000322852
0.000315148
0.000283593
0.000287208
0.000281545
0.000258732
0.000260335
0.000223258
0.000226313
0.000242282
0.000236453
0.000241818
0.000248511
0.000255424
0.000251833
0.00024699
0.000245891
0.000391786
0.000380677
0.000375028
0.000358258
0.000321997
0.000290334
0.00027291
0.00026487
0.000257252
0.000256744
0.000285334
0.000282407
0.000279422
0.000291733
0.00027692
0.000273337
0.000269191
0.00027298
0.000270439
0.000355986
0.000351917
0.000341941
0.000318903
0.000310067
0.000300615
0.000270298
0.000260804
0.000252889
0.000251886
0.000221855
0.00023442
0.000243364
0.000268476
0.000257039
0.000248205
0.000253405
0.000251587
0.000249047
0.000414057
0.000411226
0.000395845
0.000359534
0.000320844
0.000297121
0.000273257
0.000268359
0.000270839
0.00027531
0.000285896
0.000301063
0.000301771
0.000289995
0.000283881
0.000292087
0.000288409
0.000279375
0.000271657
0.000380806
0.000371986
0.00034999
0.000338465
0.000325437
0.00029435
0.000277918
0.000263022
0.000258982
0.000244871
0.00024255
0.000229377
0.00024733
0.000277086
0.000274598
0.000251364
0.000249561
0.000257323
0.000257988
0.000439622
0.000426303
0.00039523
0.000364808
0.000364859
0.00029745
0.000288901
0.000279979
0.000288732
0.000298021
0.00030536
0.000312326
0.000325728
0.000302811
0.000283685
0.000290028
0.000305304
0.00030105
0.000288778
0.000401408
0.000382444
0.000350068
0.000337542
0.000328701
0.000317025
0.000289867
0.000279618
0.000259289
0.00025847
0.000264001
0.000260987
0.000261957
0.000276463
0.000293883
0.000273096
0.000248583
0.000254746
0.000264385
0.000441759
0.000416174
0.000384844
0.000369062
0.000363554
0.00037038
0.000317362
0.00030043
0.000306835
0.000322417
0.000322807
0.000323312
0.000329216
0.000350556
0.000312706
0.000289233
0.000298667
0.000314101
0.000291762
0.000399796
0.000376104
0.00035599
0.000327125
0.000338241
0.000323949
0.0003173
0.000290648
0.000281865
0.000269178
0.000279922
0.000284469
0.000288474
0.000293247
0.000286897
0.000290202
0.000273578
0.000254649
0.000264965
0.000422428
0.000391928
0.000388214
0.000378093
0.000365163
0.000361692
0.000343326
0.00032208
0.000323726
0.000338011
0.000336382
0.000335107
0.000345181
0.000343633
0.000332602
0.000326072
0.000303699
0.000312599
0.000321386
0.000381669
0.000370618
0.000354885
0.000348213
0.000322784
0.000331489
0.000323731
0.000305657
0.000295676
0.0002944
0.000301286
0.000305872
0.000306848
0.000312846
0.000295443
0.000290617
0.000297466
0.000283476
0.00027207
0.000405727
0.000417099
0.000394589
0.000387433
0.000377775
0.000372644
0.000361296
0.000347446
0.000345536
0.000352926
0.000351565
0.000352234
0.000370913
0.000350315
0.000344328
0.000346029
0.000339404
0.000310856
0.000302267
0.000363401
0.000357492
0.000355546
0.000349673
0.000348557
0.000313572
0.000341722
0.000318066
0.000319352
0.000319536
0.00032561
0.000324217
0.000321254
0.000329577
0.000317883
0.000298943
0.000309008
0.00031267
0.000297647
0.000564909
0.000550031
0.000687891
0.000675627
0.000626232
0.000604777
0.000579766
0.00056946
0.000551624
0.000516597
0.000491029
0.000476809
0.000444852
0.000411925
0.000403565
0.000380321
0.000341424
0.0003252
0.000331804
0.000553046
0.000603496
0.000656554
0.000658479
0.000636946
0.000608915
0.000552816
0.00055498
0.000522751
0.000475242
0.000464731
0.00043816
0.000410464
0.000398336
0.000382029
0.000353186
0.000353382
0.000333351
0.00031428
0.000582925
0.000580447
0.000671213
0.000639772
0.000602842
0.00062528
0.000573271
0.000563938
0.000546851
0.00051418
0.000501757
0.000485535
0.000439465
0.000450808
0.000432821
0.000400818
0.000360962
0.000355165
0.000347227
0.000630482
0.000648592
0.000654563
0.000651062
0.00064398
0.00062122
0.000596196
0.00053861
0.000539076
0.000497367
0.000475331
0.000426366
0.000405801
0.000408227
0.000380066
0.00034125
0.000353727
0.000342899
0.000328159
0.000571238
0.000537477
0.000676447
0.00069417
0.000676577
0.000647583
0.00059838
0.000574911
0.000551186
0.000522337
0.000488374
0.000457383
0.000442442
0.000460959
0.000447227
0.000385673
0.000384406
0.00037978
0.000354162
0.000599378
0.000622953
0.000644076
0.000647557
0.000642977
0.000657863
0.000607588
0.000561619
0.000524584
0.000495693
0.000471486
0.000442211
0.000437415
0.000430815
0.000378719
0.000378566
0.000382354
0.000348372
0.000318813
0.000591677
0.000580414
0.000732197
0.000708315
0.000681697
0.00065379
0.000585588
0.000602429
0.000562429
0.00053257
0.000483071
0.000472343
0.000451557
0.000460261
0.000436029
0.000408962
0.000408928
0.000390863
0.000352866
0.000537198
0.000631958
0.000658981
0.000668915
0.000666534
0.000632325
0.000610907
0.000589295
0.000520667
0.000517113
0.000479636
0.00046558
0.000446419
0.000430478
0.000387061
0.000405863
0.000379206
0.00035001
0.000315835
0.000611365
0.000634455
0.000732805
0.00070041
0.00065996
0.000650803
0.000678746
0.000581249
0.00054245
0.000533956
0.000518998
0.000480526
0.000474729
0.00045668
0.000442077
0.000440795
0.00042132
0.000391048
0.000339034
0.000547412
0.000659277
0.000695388
0.000686189
0.000664317
0.000628991
0.000605505
0.000604523
0.000566354
0.000543761
0.000473939
0.000472818
0.000458905
0.00040707
0.000407339
0.000414167
0.000383092
0.000346506
0.000300658
0.000619656
0.000630178
0.00079816
0.000694776
0.000733859
0.000649576
0.0006218
0.000636878
0.000574778
0.00052561
0.000510372
0.000506959
0.000480455
0.000445787
0.000438453
0.000438432
0.000426492
0.000379394
0.000331373
0.000550898
0.000668781
0.000691375
0.000682258
0.000655109
0.000645659
0.000623919
0.000622101
0.000576789
0.000539936
0.000505533
0.000481986
0.000457232
0.000400903
0.000418779
0.000413293
0.000373592
0.000332965
0.00029978
0.000673335
0.000651227
0.000710628
0.000715796
0.000735771
0.000668968
0.00069601
0.00063525
0.000603816
0.000576764
0.000536835
0.000499525
0.000471479
0.00045515
0.000465819
0.000450881
0.000413286
0.00036481
0.000329029
0.000599406
0.000688729
0.000729738
0.000714492
0.000675188
0.000662835
0.000637489
0.000593919
0.000569671
0.000557201
0.00053869
0.000478977
0.000454323
0.000417132
0.000445564
0.000407638
0.000364548
0.000323734
0.000311628
0.000580374
0.000789903
0.00081813
0.000698861
0.000842313
0.000731356
0.00072133
0.000648001
0.00073381
0.000564636
0.000546015
0.000493938
0.000476059
0.000466713
0.00046867
0.000441665
0.000395576
0.000349026
0.000335582
0.000600756
0.000712206
0.000770761
0.000717506
0.000692258
0.000687801
0.000671525
0.000615136
0.00056479
0.000568031
0.00051216
0.00047673
0.000446161
0.000441408
0.00044789
0.000394728
0.000334172
0.000327506
0.000322683
0.000659154
0.000870063
0.000841621
0.000809121
0.000817904
0.0008076
0.00062438
0.000621585
0.000715211
0.000580913
0.000542288
0.000500563
0.000481088
0.000450281
0.000464942
0.000430314
0.000376464
0.000351288
0.000353422
0.000645073
0.000750734
0.000771563
0.000756177
0.000712981
0.000670488
0.000635465
0.000623393
0.00058162
0.000568784
0.000525031
0.000492302
0.00046716
0.00044126
0.000439084
0.000378298
0.000330467
0.000337431
0.000326478
0.000707642
0.000918066
0.000899141
0.000759099
0.000781146
0.000785462
0.000666319
0.000760151
0.000616013
0.000576413
0.000529816
0.000551215
0.000493635
0.000448981
0.0004589
0.000419016
0.000358621
0.000360795
0.000359682
0.000674245
0.000779227
0.000815187
0.000783264
0.000754249
0.000704419
0.000678086
0.0006625
0.00060628
0.000599778
0.000574099
0.00047926
0.000488963
0.000444227
0.000425988
0.000368491
0.00035649
0.000350679
0.000331462
0.000745249
0.000917203
0.000876098
0.000925245
0.000802132
0.000813249
0.000807319
0.000748469
0.000671514
0.00062564
0.000526637
0.000551598
0.000494992
0.000452762
0.000457144
0.000429606
0.000378192
0.000379169
0.000358661
0.000704759
0.000825527
0.000826333
0.000799522
0.000727321
0.000706308
0.000742011
0.000644572
0.000628651
0.000641625
0.000560884
0.000500124
0.000480013
0.000454662
0.000424624
0.00038052
0.000378452
0.000364904
0.000338893
0.000760727
0.000902112
0.000907781
0.000891938
0.000867201
0.000798713
0.000756402
0.000641832
0.000738455
0.00061821
0.000540509
0.000537403
0.000524745
0.000488933
0.000463873
0.000430766
0.000412114
0.00040592
0.000381642
0.000707446
0.000839489
0.000860014
0.000849341
0.000803723
0.000774764
0.000703243
0.000655285
0.000663953
0.000622624
0.000579961
0.000526993
0.000477313
0.000467943
0.000430172
0.000389322
0.000390073
0.000375326
0.000341107
0.000814715
0.0010066
0.00100015
0.000957825
0.000810143
0.000885211
0.000815127
0.000734388
0.000836052
0.000590984
0.000567869
0.000543215
0.000531856
0.000494337
0.000468973
0.000434717
0.000413822
0.000415948
0.000396769
0.000748188
0.000860798
0.000899066
0.000843408
0.000800316
0.000760268
0.000712479
0.000723989
0.000665816
0.00064603
0.000606073
0.000525988
0.000476747
0.000467124
0.000441556
0.000391678
0.000387235
0.000379939
0.000364043
0.000881004
0.0010463
0.000958206
0.000958
0.000992062
0.000943557
0.000772051
0.000865625
0.000695451
0.000625364
0.000580021
0.000584936
0.00053087
0.00049898
0.000483301
0.000440065
0.000413979
0.000420593
0.000405236
0.000802057
0.000893069
0.000918508
0.000916579
0.000846621
0.000799241
0.000759874
0.000706625
0.000658305
0.000645145
0.000627401
0.000511043
0.000515125
0.000449636
0.000441263
0.000408
0.000389973
0.00038633
0.000379124
0.000899857
0.00105642
0.00106004
0.000967125
0.000850792
0.000869613
0.000875596
0.00078801
0.000682171
0.000662795
0.000593421
0.000590858
0.000527923
0.00049059
0.000490694
0.000456628
0.000439918
0.000434683
0.000425198
0.000787176
0.000934118
0.000931586
0.000887321
0.000846104
0.000807229
0.000761419
0.000710917
0.000688798
0.000696142
0.000660062
0.000533914
0.000528219
0.000476199
0.000439814
0.000439652
0.000394956
0.000388372
0.000383675
0.000855249
0.00107823
0.00104697
0.00105728
0.00102177
0.000839077
0.000743036
0.000781404
0.000757067
0.000673829
0.000605282
0.000587678
0.000558893
0.00051616
0.00049783
0.000486878
0.000464509
0.000457336
0.000447068
0.000813657
0.000916254
0.000944243
0.000948191
0.000862145
0.00079478
0.000786494
0.000715322
0.000733216
0.00071965
0.000634795
0.000580486
0.000524497
0.000511834
0.000480362
0.000456672
0.000429769
0.000398988
0.00040621
0.000912989
0.00106049
0.00100325
0.000994886
0.000987401
0.000894393
0.000872141
0.000783018
0.000903105
0.000629086
0.000622595
0.000603538
0.000564032
0.000542171
0.000504411
0.000497753
0.000489056
0.000451772
0.00044925
0.000860976
0.000981191
0.000993527
0.000944012
0.000882693
0.000830299
0.000788321
0.000782426
0.000739607
0.000686466
0.000645517
0.000593656
0.000533775
0.000514714
0.000506054
0.000461825
0.000457481
0.000421629
0.000409638
0.00105948
0.00112471
0.00105541
0.00100108
0.000818412
0.000890049
0.000900355
0.000821878
0.000735874
0.000691883
0.000626756
0.000610861
0.00057688
0.00053371
0.000522917
0.000485216
0.000475927
0.000458176
0.000437738
0.000875562
0.000976845
0.000934036
0.000932762
0.00090881
0.000839849
0.000821578
0.000787417
0.000712218
0.000696796
0.000662779
0.000557521
0.000557614
0.000498653
0.000506267
0.000462728
0.000451832
0.000435355
0.000395173
0.00090901
0.00108272
0.00107623
0.00111297
0.000971314
0.000912273
0.00081521
0.00076366
0.000774677
0.000739385
0.000650498
0.000617339
0.000577555
0.000538601
0.000518807
0.000488595
0.000466045
0.000451676
0.000426626
0.000908704
0.00100045
0.0010583
0.000969436
0.000939414
0.000891245
0.00083119
0.000795718
0.000733195
0.000740287
0.000637111
0.000604498
0.000540235
0.000514581
0.000486858
0.000469913
0.000432659
0.000419529
0.000387022
0.000554027
0.000656842
0.000779716
0.000669116
0.000620885
0.000602444
0.000556959
0.000542341
0.00052542
0.000484098
0.000450843
0.000452743
0.000421275
0.000394372
0.000396848
0.000400244
0.000348182
0.000321158
0.000345693
0.000538303
0.000659188
0.000663089
0.000609596
0.000588613
0.000572823
0.000526511
0.000505082
0.000474694
0.000437473
0.00042259
0.000412411
0.000390359
0.000357309
0.000363772
0.000350052
0.000334216
0.000311365
0.000326245
0.000573784
0.000625379
0.000609269
0.000593157
0.000564167
0.000530949
0.000465638
0.000442941
0.000417161
0.000376705
0.000376335
0.000385089
0.000347163
0.000348871
0.000351301
0.000333711
0.000306503
0.000313822
0.000320329
0.000635974
0.000712358
0.000681436
0.000561569
0.000522837
0.000464743
0.000422367
0.000391194
0.000376809
0.000349975
0.000343625
0.000343383
0.000335886
0.000331281
0.000320134
0.00030061
0.000277806
0.000300481
0.000314254
0.000613536
0.000734066
0.000672054
0.000538778
0.000502717
0.000412751
0.000383441
0.000348521
0.000325066
0.000318968
0.000314549
0.000312272
0.000309723
0.000295726
0.000294839
0.000281192
0.000263336
0.000281928
0.000304077
0.000508891
0.000738361
0.000638307
0.000520155
0.000435819
0.00039342
0.000345321
0.000318031
0.000283912
0.00030292
0.000301195
0.000301663
0.00029652
0.000282353
0.000290118
0.000273651
0.000259691
0.000276251
0.000282861
0.000706927
0.000736723
0.000617875
0.000488822
0.000427589
0.000356792
0.000313726
0.000278354
0.000274735
0.000281457
0.000283104
0.000285643
0.000279003
0.000289128
0.000284099
0.000264967
0.0002522
0.00027238
0.00027684
0.000508404
0.000697405
0.000601942
0.000487343
0.000404294
0.000334694
0.000287813
0.000264655
0.000256456
0.000277143
0.000279251
0.00028096
0.000284508
0.000284723
0.000285364
0.000258716
0.000255225
0.000274511
0.000271544
0.000646761
0.000714581
0.000591031
0.000460665
0.000390515
0.000317911
0.000283951
0.000264242
0.000275575
0.000276883
0.000290232
0.000292028
0.000306632
0.0002894
0.000288709
0.000262561
0.000258495
0.000269897
0.0002652
0.000543394
0.000603878
0.000615538
0.000460784
0.00039039
0.000328948
0.000294775
0.000284748
0.000294903
0.000295295
0.000307857
0.000282918
0.000307902
0.000278724
0.000269182
0.000255611
0.000257901
0.000262013
0.0002559
0.000533169
0.000641985
0.000664311
0.00051671
0.000417408
0.000341165
0.000316986
0.0003032
0.000297177
0.000299887
0.0003141
0.000281547
0.000279558
0.000268898
0.000274992
0.000261999
0.000250075
0.000250251
0.00024814
0.000610945
0.000706959
0.000578179
0.000519877
0.000453893
0.00035995
0.000339101
0.000313455
0.000290848
0.000285082
0.000293679
0.000285264
0.000281931
0.000268377
0.00027673
0.000267778
0.000249405
0.000226562
0.000240051
0.000582987
0.000652016
0.000591609
0.000539437
0.000431519
0.000371075
0.000345962
0.000317886
0.000304758
0.000290332
0.000282471
0.000291902
0.000289303
0.000256786
0.000266286
0.000270643
0.000245976
0.000228798
0.000228294
0.000584513
0.000667299
0.000645801
0.000539278
0.00045403
0.000412385
0.00035477
0.000317392
0.000305705
0.000302135
0.000286974
0.000268846
0.000273807
0.000265774
0.000247873
0.000247793
0.000244544
0.000233723
0.000238628
0.000558966
0.00054883
0.000624059
0.000614623
0.000558792
0.000404874
0.000351499
0.000341475
0.000321241
0.000288734
0.000280065
0.000276219
0.000259351
0.000272363
0.000251967
0.000240559
0.000252141
0.000246706
0.000230064
0.00052125
0.000689852
0.00074119
0.000567321
0.000528952
0.000422619
0.000355968
0.000326203
0.000312669
0.000289873
0.000270987
0.000275254
0.000263767
0.000247167
0.000259812
0.000241691
0.000256973
0.00026004
0.00025288
0.000556651
0.000647786
0.000649738
0.000614128
0.000503026
0.000392639
0.00036054
0.000329168
0.000294744
0.000289476
0.000274895
0.000265893
0.000269591
0.000257226
0.000252401
0.000260403
0.000250781
0.000274312
0.000271237
0.000631952