/*--------------------------------*- C++ -*----------------------------------*\
| =========                 |                                                 |
| \\      /  F ield         | foam-extend: Open Source CFD                    |
|  \\    /   O peration     | Version:     3.1                                |
|   \\  /    A nd           | Web:         http://www.extend-project.de       |
|    \\/     M anipulation  |                                                 |
\*---------------------------------------------------------------------------*/
FoamFile
{
    version     2.0;
    format      ascii;
    class       volScalarField;
    location    "172800";
    object      DEpsilonEq;
}
// * * * * * * * * * * * * * * * * * * * * * * * * * * * * * * * * * * * * * //

dimensions      [0 0 0 0 0 0 0];

internalField   nonuniform List<scalar> 
21211
(
0.000142456
0.000142322
0.000142301
0.000142019
0.000140826
0.000140471
0.000138999
0.000136609
0.00014991
0.000149204
0.000149795
0.000149771
0.000149287
0.00014799
0.000146084
0.000140841
0.000128648
0.000131304
0.000132217
0.000131934
0.000131838
0.000131636
0.000131228
0.000130306
0.00012845
0.00012693
0.000141637
0.000140334
0.000140916
0.000140806
0.000140459
0.000139529
0.000137172
0.000131135
0.000117995
0.00011549
0.000147473
0.000147058
0.000146949
0.000146746
0.000146385
0.000145458
0.000143586
0.000142379
0.000157366
0.000145252
0.000145776
0.000145642
0.0001453
0.000144391
0.000142011
0.000135974
0.000122924
0.000117223
0.000149904
0.00014956
0.000149463
0.00014927
0.000148901
0.00014792
0.000145948
0.000144374
0.000157416
0.000145865
0.00014614
0.000145996
0.000145617
0.000144638
0.00014205
0.000135425
0.00012066
0.000111901
0.000162271
0.000161767
0.000161643
0.00016142
0.000161037
0.000159982
0.000157812
0.000156339
0.000172371
0.000143244
0.000143149
0.000142937
0.000142505
0.000141422
0.000138623
0.000131532
0.000116102
0.000106635
0.000172649
0.000172286
0.000172192
0.000172014
0.000171585
0.000170501
0.000168355
0.000166085
0.000177069
0.000148878
0.000148423
0.000148189
0.000147732
0.000146605
0.000143702
0.000136433
0.000120385
0.000105872
0.000204038
0.000203826
0.000203725
0.000203505
0.000203171
0.000202104
0.000199742
0.000199152
0.000220733
0.000162305
0.000161436
0.000161168
0.000160698
0.000159569
0.000156684
0.000149436
0.000134054
0.00012577
0.000199263
0.000199109
0.000198967
0.000198743
0.000198277
0.000197196
0.000195044
0.000192675
0.000203174
0.000164625
0.000163589
0.000163271
0.000162743
0.00016149
0.000158354
0.000150642
0.000134301
0.000121443
0.000225443
0.000225451
0.000225383
0.000225145
0.00022459
0.000223538
0.00022099
0.0002199
0.000239298
0.000179345
0.000178547
0.000178301
0.000177791
0.000176503
0.000173246
0.000165223
0.000148602
0.000136943
0.000263935
0.000263969
0.000264187
0.000264009
0.000263462
0.000262415
0.000257907
0.000258452
0.000276754
0.00019085
0.000190316
0.000190147
0.000189652
0.000188357
0.000184925
0.000176559
0.000161596
0.000154633
0.000258319
0.000258434
0.000258522
0.000258264
0.000257552
0.000256954
0.000196687
0.000262908
0.000272089
0.000194291
0.000194302
0.000194083
0.000193426
0.000191742
0.000188588
0.000187498
0.000162793
0.000157434
0.000314879
0.000314844
0.000314712
0.000314391
0.000313682
0.00031157
0.000249283
0.000298096
0.000325096
0.000211204
0.000211415
0.000211195
0.000210598
0.00020921
0.00020544
0.000196621
0.000180482
0.000172438
0.000308468
0.000308296
0.000308124
0.00030776
0.000306909
0.000304776
0.000300893
0.00030003
0.000316436
0.00021418
0.000214603
0.000214377
0.000213691
0.000212014
0.000207957
0.000199003
0.000183334
0.000180165
0.000322397
0.000322047
0.000321849
0.000321461
0.000320607
0.000318818
0.000315764
0.00031357
0.000328403
0.000227064
0.000227247
0.000226977
0.000226255
0.00022455
0.000220584
0.00021183
0.000196595
0.000195376
0.000342005
0.000341644
0.000341441
0.000341047
0.000340191
0.000338439
0.000335384
0.000332626
0.000344853
0.000246687
0.000246922
0.000246662
0.000245943
0.000244262
0.000240412
0.000231991
0.000216876
0.000208275
0.000361441
0.00036116
0.000360951
0.000360525
0.000359612
0.000357779
0.000354757
0.000353086
0.000367354
0.000257905
0.000257996
0.000257701
0.000256951
0.000255222
0.000251286
0.000242716
0.000227577
0.000220111
0.000358313
0.000358025
0.000357813
0.000357395
0.000356518
0.000354816
0.000352198
0.000351578
0.000374016
0.00027113
0.000271289
0.000270998
0.000270251
0.000268555
0.000264776
0.000256795
0.00024365
0.000245239
0.000364714
0.000364449
0.000364237
0.000363815
0.00036293
0.000361212
0.000358587
0.000358201
0.000383038
0.000279767
0.000279893
0.000279598
0.00027885
0.00027716
0.00027341
0.000265521
0.000252462
0.00025253
0.000351064
0.000350831
0.000350625
0.000350227
0.000349401
0.000347804
0.000345325
0.000344383
0.00036391
0.000295106
0.000295255
0.000294974
0.000294279
0.000292721
0.000289273
0.000281998
0.000269859
0.00027249
0.000202849
0.000202629
0.000202558
0.000202812
0.000200845
0.000201544
0.000200222
0.000194652
0.000181563
0.000179764
0.000178988
0.000179562
0.0001801
0.000129541
0.000180454
0.000174789
0.000110416
0.000102268
0.000146511
0.000142228
0.000175799
0.000171934
0.000151987
0.000139083
0.000134826
0.000146582
0.000136139
0.000189359
0.000189109
0.00021463
0.000216015
0.000215778
0.000188042
0.000186348
0.000208147
0.000187129
0.000203476
0.000203537
0.000202991
0.000202852
0.000202608
0.000202339
0.000201233
0.000197811
0.000174614
0.000177643
0.00017768
0.000177545
0.000177342
0.000177032
0.000176337
0.000174764
0.000171313
0.0001568
0.000168829
0.000168874
0.000168804
0.000168574
0.000168281
0.000167682
0.000166506
0.00016402
0.000149831
0.000159449
0.000159446
0.000159379
0.000159198
0.000158889
0.000158299
0.000157296
0.000155651
0.000145739
0.000148157
0.000148167
0.000148089
0.00014796
0.000147621
0.00014689
0.000145536
0.000143048
0.000142822
0.000164388
0.00016434
0.000164264
0.000164119
0.000163701
0.000162988
0.000161789
0.000159709
0.000154357
0.000154684
0.000154652
0.000154569
0.000154383
0.00015403
0.000153208
0.000151679
0.000150553
0.000170195
0.000181704
0.000181668
0.00018158
0.000181374
0.000180927
0.000180027
0.000178369
0.000176149
0.000184066
0.000181268
0.000181292
0.000181201
0.000180989
0.000180526
0.000179655
0.000178219
0.000176284
0.000179908
0.000191548
0.000191576
0.000191482
0.000191264
0.00019081
0.000189961
0.000188571
0.000186368
0.000185292
0.000209175
0.000209226
0.000209126
0.000208892
0.000208406
0.000207476
0.000205867
0.000203248
0.000202704
0.000217478
0.000217543
0.000217437
0.000217183
0.000216662
0.000215663
0.000213918
0.000210932
0.000206901
0.000213562
0.000213647
0.000213544
0.000213289
0.00021277
0.000211807
0.000210212
0.000207771
0.000205713
0.000207194
0.000207261
0.000207148
0.000206872
0.00020631
0.000205262
0.000203574
0.000201519
0.000206083
0.000199125
0.000199204
0.000199105
0.000198856
0.000198355
0.000197445
0.000195992
0.000193726
0.000191151
0.000125199
0.000125856
0.000126033
0.000125578
0.000123414
0.000121786
0.000116462
0.00010216
0.000101186
0.000122707
0.000123476
0.000124332
0.000125174
0.000127297
0.000120944
0.000115563
0.000113145
0.000114935
0.000119292
0.000118452
0.000115049
0.000114433
0.000113371
0.000114556
0.000110023
9.4398e-05
0.000116297
0.00013922
0.000139749
0.00014017
0.000140277
0.000139437
0.000137325
0.000133025
0.000125493
0.000143631
0.000125872
0.000126037
0.000125799
0.000125509
0.000124856
0.00012333
0.000119332
0.000111603
0.000130431
0.00011588
0.000115981
0.000115858
0.000115598
0.000114906
0.000113151
0.000108754
9.97508e-05
0.000110001
0.000113431
0.000113487
0.000113361
0.00011307
0.000112356
0.000110579
0.000106218
9.75907e-05
0.00012303
0.000106159
0.000106197
0.000106055
0.000105733
0.000104977
0.000103155
9.878e-05
9.05286e-05
0.000116699
0.000107455
0.000107409
0.000107264
0.000106929
0.000106125
0.00010418
9.94686e-05
9.05832e-05
0.000127022
0.000116058
0.000116092
0.000115953
0.000115602
0.000114771
0.00011282
0.000108253
9.99571e-05
0.000126228
0.000117741
0.000117731
0.000117573
0.000117152
0.000116161
0.000113813
0.000108403
9.90642e-05
0.000129228
0.000126003
0.000126039
0.00012586
0.000125382
0.000124249
0.00012158
0.000115438
0.000104967
0.000128581
0.000132781
0.000132801
0.000132616
0.00013212
0.000130966
0.000128335
0.000122568
0.000113464
0.000136966
0.000139568
0.000139598
0.000139402
0.000138898
0.000137758
0.000135244
0.000129962
0.000121698
0.000138744
0.000151169
0.000151128
0.000150917
0.000150406
0.000149268
0.000146793
0.000141634
0.000133356
0.000144783
0.000156776
0.000156692
0.000156464
0.000155923
0.000154731
0.000152152
0.000146776
0.00013773
0.000142681
0.000163521
0.0001634
0.000163165
0.000162625
0.000161455
0.000158997
0.000154102
0.000146372
0.000149961
0.000157007
0.000156849
0.000156597
0.000156028
0.000154799
0.000152212
0.000147085
0.000139741
0.000152084
0.000166946
0.000166789
0.000166562
0.000166057
0.000164982
0.000162753
0.000158361
0.000151593
0.000159319
0.000159295
0.0001663
0.000159327
0.000149964
0.000157134
0.000148936
0.000143045
0.000143528
0.000138985
0.000137164
0.000136476
0.000138662
0.000140467
0.000137821
0.000136996
0.000127005
0.00013032
0.000134603
0.000137309
0.000166209
0.000136104
0.000138588
0.000132128
0.000127167
0.000121594
0.000121308
0.000119085
0.000119664
0.000115396
0.000113111
0.000116704
0.000127561
0.000122908
0.000126455
0.00012356
0.000120102
0.000122823
0.000128451
0.000168059
0.000169643
0.00017446
0.000148475
0.000140181
0.000138566
0.00013388
0.00013056
0.000126449
0.000127434
0.000131449
0.000134006
0.000141939
0.000145203
0.00014449
0.000142315
0.000123505
0.000123305
0.000131762
0.00015725
0.00013974
0.000128291
0.000129429
0.000127389
0.000125486
0.000122689
0.000123458
0.000120052
0.000123525
0.000116236
0.0001152
0.00012094
0.000133232
0.000128989
0.000128419
0.00012094
0.000114767
0.000117644
0.000187373
0.000159121
0.000151426
0.00015343
0.00014225
0.000129614
0.000128083
0.000121782
0.000121563
0.000116236
0.000123602
0.000130916
0.000140175
0.000149496
0.000148035
0.000143659
0.000135214
0.000118511
0.000125152
0.000153056
0.000147779
0.000135069
0.00011937
0.000122268
0.000126423
0.000124448
0.000120313
0.000124446
0.000115505
0.000124415
0.000118244
0.000117096
0.000127386
0.000135563
0.000126704
0.000121947
0.000117015
0.000113491
0.000177873
0.000172245
0.000141625
0.000130247
0.000138495
0.000137655
0.000128698
0.000135119
0.000125295
0.000122407
0.000120144
0.000130473
0.000138247
0.000142932
0.000142347
0.000151874
0.000138227
0.000133267
0.000123775
0.000149701
0.000145582
0.000137703
0.000121831
0.000115908
0.000114341
0.000128891
0.000124314
0.000120706
0.000121075
0.000126917
0.000123041
0.00014569
0.000127257
0.000126733
0.00012963
0.00012344
0.000121637
0.000118466
0.0001656
0.000160146
0.000161018
0.0001274
0.000119378
0.000145557
0.000139623
0.000141921
0.000154275
0.000139469
0.000135102
0.000129483
0.000132202
0.000133068
0.000140719
0.000139181
0.000146584
0.000139903
0.000141031
0.000148479
0.000135349
0.000126577
0.000143812
0.000125999
0.000109531
0.000104413
0.000130218
0.000132824
0.00012298
0.000117521
0.000128059
0.000139299
0.00012673
0.000124995
0.000126501
0.000128701
0.000124966
0.000123465
0.000156983
0.000153371
0.000154292
0.000147344
0.000132563
0.000139606
0.000158117
0.000148754
0.000147982
0.000162245
0.000149668
0.000141753
0.000133772
0.000127854
0.000140551
0.000141625
0.000141377
0.000147607
0.000151325
0.000151304
0.000145672
0.000132091
0.000131216
0.000134667
0.000126956
0.000119108
0.00011068
0.000129792
0.000146163
0.000136372
0.000136745
0.000135363
0.000142571
0.000142853
0.000116043
0.000118774
0.000129616
0.000133744
0.000171047
0.000158303
0.000161769
0.000161361
0.000167406
0.000140217
0.000139906
0.000162999
0.000168182
0.000150913
0.000159536
0.000151497
0.000138511
0.000124625
0.000127086
0.000146239
0.000145022
0.000154826
0.000165285
0.000151196
0.000144887
0.000141093
0.000133362
0.000124008
0.000117628
0.000139244
0.000124601
0.000128824
0.000143167
0.000156916
0.000139161
0.000136346
0.000129141
0.000137199
0.000134251
0.000116382
0.000128992
0.000137548
0.000182073
0.000173561
0.000164296
0.000158098
0.000166793
0.000159587
0.000135746
0.000143849
0.000163071
0.000159474
0.000154219
0.000159768
0.000140629
0.000118404
0.000123911
0.000134729
0.000146993
0.000157292
0.000168043
0.000156062
0.000147955
0.000143408
0.000137449
0.000131862
0.000124398
0.000127239
0.000155406
0.000139127
0.000133434
0.000141921
0.000149334
0.000133651
0.000135117
0.000120865
0.000126492
0.000125934
0.000127521
0.0001429
0.000188947
0.000175404
0.000165784
0.000150414
0.000152368
0.000162818
0.00015226
0.000139449
0.000150925
0.000163565
0.000154177
0.000148555
0.000148869
0.000131831
0.000134361
0.000144107
0.000151681
0.000157801
0.000154533
0.000160538
0.000153277
0.000142616
0.000115347
0.000146236
0.000137516
0.00014017
0.000147281
0.000163246
0.000137172
0.000133117
0.000153299
0.000144845
0.000138483
0.000128389
0.000127804
0.000127786
0.000140174
0.000150108
0.000184341
0.000177933
0.000169433
0.000158345
0.000146782
0.000155849
0.000163749
0.000166372
0.000145362
0.000143082
0.000153748
0.000144063
0.000144909
0.000147861
0.000146133
0.000150429
0.000153589
0.000149995
0.000152236
0.000166243
0.000156622
0.000151855
0.000150151
0.000128874
0.000160246
0.000148224
0.000149555
0.000142284
0.000156435
0.000112136
0.000132208
0.000135654
0.000142957
0.000139393
0.000134756
0.00014078
0.000149617
0.000158264
0.000188541
0.000181072
0.000171862
0.000153283
0.000157671
0.000163272
0.000165846
0.000164216
0.000161218
0.000110231
0.000139186
0.000160792
0.000153889
0.000155242
0.00015117
0.000149991
0.00014874
0.000149076
0.000153332
0.0001724
0.000166715
0.000158444
0.000136638
0.000170072
0.000160795
0.000154718
0.000145707
0.000159755
0.000125123
0.000147073
0.000127969
0.000130098
0.000145919
0.000145203
0.000146057
0.000148875
0.000153523
0.000150226
0.000209666
0.000196327
0.000181177
0.00016963
0.000168453
0.00017104
0.00015722
0.000149769
0.00016598
0.00016032
0.000109243
0.000152304
0.000170783
0.000154571
0.000149001
0.000145672
0.000145654
0.000150563
0.000151747
0.000183268
0.000177651
0.000172322
0.000174889
0.000168565
0.000156573
0.00013784
0.000156937
0.000123902
0.000148297
0.000127904
0.000140707
0.000129405
0.000133983
0.000153417
0.00015211
0.000149838
0.000146781
0.000142642
0.000223588
0.000213143
0.000202422
0.000190856
0.000183101
0.000165577
0.000164325
0.000147644
0.000143754
0.000168541
0.000164376
0.00014951
0.000160911
0.000163359
0.000154553
0.00014738
0.00014887
0.00015076
0.000152442
0.000191682
0.000188555
0.000186275
0.000180449
0.000166865
0.000148879
0.00019581
0.000134713
0.000174172
0.000138105
0.000141494
0.000143638
0.000141126
0.000137052
0.000148295
0.000149394
0.000146747
0.000140462
0.000141128
0.000228433
0.000223266
0.00022007
0.00021254
0.000193395
0.000181143
0.000159229
0.000157134
0.000146521
0.000148715
0.000177182
0.000169923
0.000167813
0.000166138
0.000161515
0.000161138
0.000150855
0.000154338
0.000152156
0.000199282
0.000200824
0.000194636
0.000183504
0.000166922
0.000217551
0.000143054
0.000182058
0.000135677
0.00015972
0.00013742
0.000133215
0.000145214
0.000157569
0.000148635
0.000144609
0.000141965
0.000141669
0.000135707
0.000236481
0.000233934
0.000229449
0.000217048
0.000212473
0.000188022
0.000172862
0.000158177
0.00016199
0.000161691
0.000165894
0.000178406
0.00018622
0.000168669
0.00015491
0.00016691
0.000166844
0.000152276
0.000148626
0.000212967
0.000207809
0.000200029
0.000193955
0.000240616
0.000159907
0.000202864
0.000145029
0.000171061
0.000145011
0.000144022
0.000138162
0.000144742
0.000162364
0.000154965
0.000141643
0.000137778
0.000135884
0.000138778
0.000244085
0.000241727
0.000228649
0.000209627
0.000195156
0.000203737
0.000183947
0.000174476
0.000171759
0.000174967
0.000177407
0.000179874
0.000194608
0.000180005
0.000162328
0.000157639
0.000167851
0.000165632
0.000152706
0.000219847
0.000214678
0.000202393
0.000163863
0.000185044
0.000231782
0.000164267
0.000192274
0.000152826
0.000149428
0.000153236
0.000150364
0.000149554
0.000153816
0.000168541
0.0001493
0.000131396
0.000132111
0.000133516
0.000245877
0.000238413
0.000223493
0.000248948
0.000211296
0.000197229
0.000209973
0.00018601
0.000184305
0.000187305
0.000184465
0.000186018
0.000189253
0.00020835
0.000183838
0.00016081
0.000155054
0.000169269
0.000153624
0.000222376
0.000211831
0.000207219
0.000226046
0.000162156
0.000181657
0.000225267
0.000170457
0.000180226
0.000158378
0.000158462
0.000160942
0.000164425
0.000160207
0.000157441
0.000153206
0.000141106
0.000129276
0.00013575
0.000237892
0.000229677
0.000227815
0.000219798
0.000214987
0.000207917
0.00021306
0.000196168
0.000193126
0.000192956
0.000190542
0.000193424
0.000204913
0.000190928
0.000180778
0.000182925
0.00016158
0.000158173
0.00017541
0.000214859
0.000211865
0.000205425
0.000205382
0.000202222
0.000155699
0.000203274
0.00018044
0.000175428
0.000165585
0.000170929
0.000171358
0.000170527
0.000168052
0.000154442
0.000149983
0.000148873
0.000143394
0.000135416
0.000232086
0.000204361
0.000231546
0.00022691
0.000212894
0.000220055
0.000203515
0.000215222
0.000203287
0.000201568
0.000200294
0.000201679
0.000217656
0.000190968
0.000183845
0.000185718
0.000184171
0.000160636
0.000148886
0.000203973
0.000192365
0.000204733
0.00020752
0.000171294
0.000201333
0.000151416
0.000199978
0.000181268
0.000180968
0.000180761
0.000178011
0.000174654
0.000170333
0.000161263
0.000151707
0.000154253
0.000152914
0.000149765
0.000171089
0.000213021
0.000316086
0.000267088
0.000257673
0.000275698
0.000267643
0.000279116
0.000280659
0.000267386
0.000248198
0.000242359
0.000228289
0.000212689
0.000206747
0.000199711
0.000174573
0.000161927
0.00016163
0.000190094
0.000184957
0.000240923
0.000239692
0.000237861
0.000244904
0.000221219
0.00024202
0.000234397
0.000216129
0.000210634
0.000200517
0.00019501
0.000195908
0.000192753
0.000184178
0.000181333
0.000162318
0.000152288
0.000160996
0.000225951
0.000272724
0.000286398
0.000275672
0.000251353
0.000230228
0.000252396
0.000253876
0.000250054
0.000243954
0.000236994
0.00021699
0.0002324
0.000233599
0.000224284
0.000199604
0.000188586
0.000182486
0.00020188
0.000204088
0.000218445
0.000229981
0.000240969
0.000222515
0.000216785
0.000207784
0.000228854
0.000220494
0.000213216
0.000189063
0.000180629
0.000180949
0.000184947
0.000162537
0.000174748
0.000168206
0.000160004
0.00016918
0.000187323
0.000271388
0.000300531
0.000310603
0.000255023
0.000241101
0.000246728
0.00025268
0.000240409
0.000228645
0.000215837
0.000213911
0.000229148
0.000240306
0.000211239
0.000204447
0.00020278
0.000184956
0.000212679
0.000185698
0.000206312
0.000217009
0.000226634
0.0002422
0.000219285
0.000208648
0.000209687
0.000200775
0.000198087
0.000187656
0.000189757
0.000197404
0.00018346
0.000193615
0.000196756
0.000169903
0.000162791
0.000139534
0.000175271
0.000283433
0.000283874
0.000293884
0.000309637
0.000283868
0.000243348
0.000238304
0.000231775
0.000218629
0.000223085
0.000212291
0.00022998
0.000236577
0.000221604
0.000213577
0.000211411
0.000192186
0.000128527
0.000171439
0.000196914
0.000215454
0.00023381
0.000225486
0.000231551
0.000219729
0.000192816
0.000199721
0.000193302
0.000196945
0.000188553
0.000209564
0.000187678
0.000202998
0.000181058
0.000171109
0.000170206
0.000171241
0.000228238
0.000283337
0.000284308
0.000277509
0.00027905
0.000311943
0.000221155
0.000212292
0.000226323
0.000230164
0.000223062
0.000227851
0.00022977
0.000236487
0.000231009
0.000228969
0.000221088
0.000185013
0.000134473
0.00018395
0.000215215
0.00022765
0.000233858
0.000219338
0.000214277
0.000221111
0.000206042
0.000213151
0.000181278
0.000195045
0.000200635
0.000184012
0.000195181
0.000200623
0.000190187
0.000186063
0.000160622
0.000156779
0.000221085
0.000315092
0.000283463
0.000322486
0.000272523
0.000270303
0.000242691
0.000222343
0.000217817
0.000219997
0.000231546
0.000222902
0.00021838
0.000220962
0.000230214
0.000238528
0.000213701
0.000182554
0.000117408
0.000200509
0.000215096
0.000229476
0.000221268
0.000225651
0.00022417
0.000224898
0.000204639
0.0002017
0.00019288
0.000198872
0.000193198
0.000175321
0.000189017
0.000200962
0.000195713
0.000180573
0.000162186
0.000179962
0.000208621
0.000273124
0.000269394
0.000298837
0.000270708
0.000307965
0.000294317
0.000285344
0.000231486
0.000233751
0.000220547
0.000217669
0.00022233
0.00023839
0.000248598
0.000231092
0.000203922
0.000180524
0.000151869
0.000185009
0.000233137
0.000233656
0.000219986
0.000228022
0.000221154
0.00020925
0.000205108
0.000204789
0.000214639
0.000188777
0.000196212
0.00018411
0.00020131
0.000206417
0.000196365
0.000176702
0.00016583
0.000162227
0.000307475
0.000325743
0.000255918
0.000377659
0.000309305
0.00031992
0.000281449
0.000357772
0.000223894
0.000229556
0.000212662
0.000218219
0.0002274
0.000243195
0.000240141
0.000219672
0.000191993
0.000186486
0.000152869
0.000214833
0.000256809
0.000227701
0.000219791
0.000238437
0.000245382
0.000223425
0.000196312
0.000211683
0.00019149
0.000183143
0.00018577
0.000194638
0.000213468
0.000202606
0.000174879
0.000175569
0.000165445
0.00022596
0.000321571
0.000318979
0.000322577
0.000354674
0.000367349
0.00026535
0.000266316
0.000339831
0.000230771
0.000225538
0.000216091
0.000223253
0.000215453
0.0002351
0.000225729
0.000202952
0.000187481
0.000191939
0.000164185
0.000207793
0.00023735
0.000250775
0.000226582
0.000216143
0.000220111
0.00022464
0.000203985
0.00021214
0.000194236
0.000188077
0.000194914
0.000196707
0.000207283
0.00018392
0.0001677
0.000170893
0.000165918
0.000244619
0.000389033
0.000377822
0.000290706
0.000321306
0.000337809
0.000263429
0.000354622
0.00026907
0.000226712
0.00021666
0.000243217
0.000226553
0.000214002
0.000224026
0.00021383
0.000185533
0.000192597
0.000195793
0.000191317
0.000232111
0.00026078
0.000268826
0.000256753
0.000234337
0.000234081
0.000237509
0.000219855
0.000238007
0.000235708
0.0001833
0.00020416
0.000195907
0.000194537
0.000173874
0.000171331
0.000174806
0.000173724
0.000224306
0.00037105
0.000327948
0.000389136
0.000336741
0.000354024
0.000370337
0.000351201
0.000283806
0.000245436
0.000220274
0.000238884
0.000227443
0.000211984
0.000225454
0.000220104
0.000202709
0.000212289
0.000202699
0.000190262
0.000269374
0.000257398
0.000262469
0.000227796
0.000228867
0.000271285
0.000231253
0.000228902
0.000246275
0.000228619
0.000197732
0.000194959
0.000197059
0.000192867
0.000174445
0.000183788
0.000187522
0.000182384
0.00027453
0.000375164
0.000381146
0.000367599
0.000373653
0.000343785
0.000336499
0.00026506
0.000333174
0.000247272
0.000221063
0.000235376
0.000242578
0.000234454
0.000237666
0.000226918
0.000226655
0.000232544
0.000224864
0.000201071
0.000270883
0.000296204
0.000290381
0.000271508
0.000273652
0.000247031
0.000235482
0.000254534
0.000240313
0.000238452
0.000212267
0.000194908
0.000201692
0.000198142
0.000185978
0.000193707
0.000196677
0.000185813
0.000241803
0.000386704
0.000425418
0.000397429
0.000317062
0.000382334
0.00035932
0.00032367
0.000396634
0.000242731
0.000236477
0.000240258
0.000256079
0.000238475
0.000236547
0.000233717
0.00022456
0.000234544
0.000237406
0.000205579
0.000248577
0.000314857
0.000289227
0.000268536
0.00024988
0.000239785
0.000281093
0.000250615
0.000265705
0.000255201
0.000207976
0.000204006
0.000208283
0.000203709
0.000187949
0.00019644
0.000198599
0.000215915
0.00031071
0.000437559
0.000400878
0.00038867
0.000441364
0.000422078
0.000325686
0.000403876
0.000308245
0.000262332
0.000249678
0.000262327
0.000254477
0.000242741
0.000239637
0.000237031
0.000220964
0.000233926
0.000235002
0.000262435
0.000294811
0.000327582
0.000320048
0.000289122
0.000275956
0.000276968
0.000258031
0.000260024
0.000274278
0.000280439
0.000203095
0.000231756
0.000209526
0.000205354
0.000201211
0.000199087
0.000199663
0.000205714
0.000310236
0.000416838
0.000428561
0.000398158
0.000340779
0.00036165
0.000386806
0.000343381
0.00027689
0.000279116
0.000254417
0.000264733
0.00024828
0.000241617
0.00023937
0.000230337
0.000231285
0.000235539
0.000237731
0.000229788
0.000304759
0.000310044
0.00030132
0.000293842
0.000283631
0.000273399
0.000268885
0.000278933
0.000298009
0.000293414
0.000218486
0.000226325
0.000226465
0.000204978
0.000207755
0.000199094
0.000205978
0.000208289
0.000226451
0.000424215
0.000434676
0.000429997
0.000435442
0.000351213
0.000301034
0.000321296
0.000309657
0.000286025
0.000265363
0.000266466
0.000263486
0.000252602
0.000245877
0.000237634
0.000237237
0.000243239
0.000244708
0.000237395
0.000275644
0.000338535
0.00034617
0.000294887
0.000285496
0.000312588
0.000275796
0.000299515
0.000314666
0.000277214
0.000246145
0.000223178
0.000234311
0.000233146
0.000210892
0.000212861
0.000209308
0.000222347
0.000289593
0.000413709
0.000381186
0.000403395
0.000412195
0.000364826
0.000366853
0.000325962
0.000412178
0.000273016
0.00027349
0.000270418
0.000266195
0.000264921
0.000248863
0.000242233
0.00025611
0.000238675
0.000242877
0.000313092
0.000348388
0.000375625
0.000351978
0.00032897
0.000310293
0.000294089
0.000316285
0.000299954
0.00029693
0.000281233
0.000253455
0.000234129
0.000230153
0.000243777
0.00021675
0.000219923
0.00021829
0.000222862
0.000444426
0.000409108
0.000415631
0.000375529
0.000295963
0.000348612
0.000373159
0.000345795
0.000297763
0.000295489
0.000270334
0.000286855
0.000261128
0.000258307
0.000258437
0.000240548
0.000237313
0.000244028
0.000238365
0.000318693
0.000370523
0.00033677
0.000358348
0.000366613
0.000321043
0.000319785
0.000316273
0.00028634
0.000297216
0.000285196
0.00023833
0.000250167
0.000221966
0.000237601
0.000227945
0.000216057
0.00022336
0.000216237
0.000294145
0.000389452
0.000445751
0.000442587
0.000388256
0.000352653
0.00031628
0.000325389
0.000322702
0.000308497
0.000281821
0.000277459
0.000266968
0.000253573
0.000255729
0.000251499
0.000233818
0.00023755
0.000236352
0.000362761
0.000399881
0.000443584
0.000378743
0.000369579
0.000341703
0.000317648
0.000319457
0.000292888
0.000301309
0.000253509
0.000263782
0.000233193
0.000232709
0.000222815
0.000233569
0.000215457
0.00020749
0.000206466
0.000168189
0.000232473
0.000303364
0.000307255
0.000298589
0.000293883
0.000279171
0.000280847
0.000270479
0.000255683
0.000239641
0.000235809
0.000220545
0.00020953
0.000206182
0.000220455
0.000185358
0.000164727
0.000182497
0.000230144
0.000291592
0.000317573
0.000294029
0.000294501
0.000306951
0.000285323
0.00025632
0.000248039
0.000232589
0.000222825
0.000212962
0.000206843
0.000178968
0.000184023
0.000186345
0.000178652
0.000161687
0.000170855
0.000236004
0.000269302
0.000294825
0.000292413
0.000288763
0.000290191
0.000257426
0.000235852
0.000224423
0.000199425
0.000200109
0.000205578
0.000179277
0.000180832
0.000185763
0.000182224
0.000162691
0.000165171
0.000163363
0.000220142
0.000299881
0.000332556
0.000293764
0.000296952
0.000267075
0.000247186
0.000209789
0.000202391
0.000190723
0.000183498
0.000180695
0.000178626
0.000173603
0.000163628
0.000160555
0.000147883
0.000162659
0.00016158
0.000251394
0.000326638
0.000347526
0.000281564
0.000280163
0.000231072
0.000217803
0.000191804
0.000170324
0.000172826
0.000165404
0.000163486
0.000162333
0.000148811
0.000153322
0.000147196
0.000137477
0.000149806
0.000157531
0.000202379
0.000343411
0.00035546
0.000295313
0.000274182
0.000244613
0.000199181
0.000180793
0.000148236
0.000164229
0.000169058
0.000165129
0.000156546
0.000145824
0.000157294
0.000143815
0.000133273
0.000146224
0.000147716
0.000298772
0.000372425
0.000364494
0.000297325
0.000268097
0.000219161
0.000190124
0.000155519
0.000145005
0.000155194
0.000156088
0.00015657
0.000147443
0.000156253
0.000153875
0.000139924
0.000134574
0.000147278
0.000146814
0.000269656
0.000374164
0.000378154
0.000288389
0.000269752
0.000215253
0.000173571
0.000154114
0.000145658
0.000155002
0.000158083
0.000156398
0.000152399
0.000150883
0.000159118
0.000137737
0.000139991
0.000145976
0.000149841
0.000272952
0.00036246
0.000357721
0.000277091
0.000247773
0.00019187
0.000185845
0.000158798
0.000157545
0.000161197
0.000168067
0.00016554
0.000172241
0.00015372
0.000156547
0.000143956
0.000144261
0.000139033
0.000144571
0.000254413
0.000346235
0.000368126
0.000274232
0.00024362
0.000206723
0.000179674
0.000177155
0.000175464
0.000174546
0.000181485
0.00015758
0.000173721
0.000147929
0.000138001
0.000141577
0.000143445
0.000137527
0.000140358
0.000225302
0.00032894
0.000385052
0.000326375
0.000254574
0.000200746
0.000188729
0.000188899
0.00017244
0.000179287
0.000182899
0.000152279
0.000143045
0.000140511
0.00013779
0.000138155
0.000141442
0.000137827
0.00013683
0.00026455
0.000350081
0.000345738
0.000320455
0.000252175
0.000212714
0.000202183
0.000183377
0.000162156
0.000153325
0.000155129
0.000149569
0.000134266
0.000136707
0.000134722
0.000136743
0.000134257
0.000120354
0.000134953
0.000203881
0.000296738
0.000303743
0.000279462
0.00022261
0.000195587
0.000184618
0.000167982
0.000153668
0.000139848
0.00013775
0.000148198
0.000139161
0.000125733
0.000137514
0.000136349
0.00012794
0.000118727
0.000123569
0.000245339
0.000286194
0.000294544
0.000292781
0.000247143
0.000210314
0.000177308
0.000152965
0.000144957
0.000142113
0.000137165
0.000124477
0.000141391
0.000128635
0.000121348
0.000126636
0.000123762
0.00012002
0.000128194
0.00020236
0.000191572
0.000281653
0.000291104
0.000280593
0.000202412
0.000173779
0.000170112
0.000153748
0.000137708
0.000138334
0.00013603
0.000129629
0.000137599
0.000128303
0.000119836
0.000132657
0.000127041
0.000116331
0.000142543
0.000294912
0.000344699
0.000262878
0.000239876
0.000215649
0.000176159
0.000160329
0.000153372
0.000139846
0.000126548
0.000138594
0.000135083
0.000117487
0.000132507
0.000118076
0.00013147
0.000137819
0.000128142
0.000201042
0.000236513
0.000275146
0.000291771
0.000243794
0.00019988
0.000185253
0.000169124
0.000147146
0.00014204
0.000131346
0.000124258
0.000136338
0.000129604
0.000120719
0.000130498