/*--------------------------------*- C++ -*----------------------------------*\
| =========                 |                                                 |
| \\      /  F ield         | foam-extend: Open Source CFD                    |
|  \\    /   O peration     | Version:     3.1                                |
|   \\  /    A nd           | Web:         http://www.extend-project.de       |
|    \\/     M anipulation  |                                                 |
\*---------------------------------------------------------------------------*/
FoamFile
{
    version     2.0;
    format      ascii;
    class       volScalarField;
    location    "172800";
    object      DEpsilonHyd;
}
// * * * * * * * * * * * * * * * * * * * * * * * * * * * * * * * * * * * * * //

dimensions      [0 0 0 0 0 0 0];

internalField   nonuniform List<scalar> 
21211
(
8.7933e-05
8.80519e-05
8.81178e-05
8.82347e-05
8.83881e-05
8.93383e-05
9.13826e-05
9.61555e-05
0.000109799
0.000116486
0.000116214
0.000116272
0.000116411
0.000116791
0.00011799
0.000121162
0.000129618
0.000152105
8.9254e-05
8.94332e-05
8.9497e-05
8.96302e-05
8.99366e-05
9.07889e-05
9.29337e-05
9.82279e-05
0.000114021
0.000114169
0.000113894
0.000113955
0.000114139
0.000114596
0.000115835
0.000119176
0.000128321
0.000152891
9.11381e-05
9.14267e-05
9.15025e-05
9.16557e-05
9.20029e-05
9.28868e-05
9.5107e-05
0.000100575
0.000116341
0.000117428
0.000117187
0.00011726
0.000117458
0.000117944
0.00011923
0.000122657
0.000131909
0.000155873
9.58402e-05
9.60877e-05
9.61623e-05
9.63159e-05
9.66774e-05
9.7606e-05
9.99501e-05
0.00010583
0.000123479
0.00012196
0.000121865
0.000121947
0.000122154
0.00012267
0.000124032
0.000127664
0.000137476
0.000163327
9.80461e-05
9.84172e-05
9.85037e-05
9.86635e-05
9.90473e-05
0.000100018
0.000102447
0.000108461
0.000126733
0.000121484
0.000121575
0.000121679
0.000121901
0.000122452
0.000123891
0.000127707
0.000137967
0.000164599
0.000109781
0.000110051
0.000110134
0.000110301
0.000110682
0.000111701
0.000114303
0.000120673
0.000139886
0.000125174
0.000125442
0.000125559
0.000125788
0.000126361
0.000127871
0.000131874
0.000142608
0.00017089
9.07922e-05
9.10137e-05
9.11034e-05
9.12895e-05
9.17361e-05
9.28601e-05
9.56621e-05
0.000102525
0.000123621
0.000127731
0.000128222
0.000128358
0.000128605
0.000129227
0.000130826
0.000135032
0.000146373
0.000175972
0.00012042
0.000120536
0.000120604
0.000120784
0.000121242
0.000122346
0.00012518
0.000131933
0.000152212
0.000136028
0.000136569
0.000136706
0.000136966
0.000137622
0.000139305
0.000143705
0.000155259
0.000184692
0.000105185
0.000105172
0.000105239
0.000105453
0.000105962
0.000107203
0.000110199
0.000117388
0.000139545
0.000143366
0.000143793
0.000143923
0.000144197
0.000144886
0.00014665
0.000151243
0.000163499
0.000194718
0.000117771
0.000117734
0.000117818
0.000118048
0.000118566
0.000119885
0.000122922
0.00013076
0.00015381
0.000149136
0.000149436
0.000149577
0.000149881
0.000150615
0.000152451
0.000157231
0.000169972
0.000200906
0.000119511
0.000119376
0.000119444
0.000119687
0.000120319
0.00012207
0.000159988
0.000131795
0.000157935
0.000152919
0.000152894
0.000153027
0.00015339
0.000154344
0.000156991
0.00016546
0.000177235
0.000209176
0.000131572
0.00013156
0.000131664
0.000131917
0.000132508
0.000133559
0.000122082
0.00014694
0.000170834
0.000162324
0.000162192
0.000162322
0.000162685
0.000163554
0.000165638
0.000170564
0.000185429
0.000219613
0.000141976
0.000142144
0.000142268
0.000142544
0.000143194
0.000144686
0.00014749
0.000155336
0.000182442
0.000159373
0.000159124
0.000159266
0.000159677
0.000160675
0.000163113
0.000169207
0.00018453
0.000220813
0.000147475
0.000147811
0.000147959
0.000148261
0.000148965
0.000150568
0.000154071
0.000161741
0.000189535
0.000162944
0.000162836
0.000163011
0.000163469
0.000164564
0.000167199
0.000173653
0.000189514
0.000226524
0.000161404
0.000161736
0.000161892
0.000162212
0.000162945
0.000164578
0.000168055
0.000175535
0.000201068
0.00016779
0.000167648
0.000167832
0.000168323
0.000169485
0.000172243
0.000178885
0.000194907
0.000231572
0.000158754
0.000159033
0.000159197
0.00015954
0.000160318
0.000162031
0.000165624
0.000173285
0.000202516
0.000170451
0.000170389
0.000170598
0.000171125
0.000172358
0.00017526
0.000182205
0.000198849
0.000236819
0.000164983
0.000165255
0.000165427
0.000165781
0.000166568
0.000168254
0.000171652
0.000178651
0.000206918
0.000171251
0.000171137
0.000171354
0.000171908
0.000173189
0.000176168
0.000183174
0.000199478
0.000234757
0.000167012
0.000167277
0.000167453
0.000167814
0.00016861
0.000170298
0.000173634
0.000180218
0.000204901
0.00017283
0.000172725
0.000172951
0.000173522
0.000174837
0.000177885
0.000185046
0.000201772
0.000238437
0.000171364
0.000171574
0.000171749
0.000172108
0.00017289
0.000174521
0.000177675
0.000183746
0.000208472
0.000169271
0.000169148
0.00016938
0.000169957
0.000171274
0.000174311
0.000181423
0.00019805
0.000234761
0.000133034
0.000133135
0.000133217
0.000133312
0.00013275
0.000134138
0.000135885
0.000138889
0.000151175
0.000118369
0.000118562
0.000119328
0.000119651
0.000108775
0.00012243
0.000122425
0.000122997
0.000144848
0.000104051
0.000103169
0.000114247
0.000112042
0.000102454
0.000104753
0.000107147
0.000108805
0.000117171
0.00011547
0.00011569
0.000125988
0.000127079
0.00012679
0.000117062
0.000118135
0.000130838
0.000140044
0.000125314
0.00012527
0.000125287
0.00012539
0.00012563
0.000126176
0.0001275
0.0001301
0.000136484
0.000107781
0.000107736
0.00010778
0.00010787
0.000108118
0.000108728
0.000110122
0.000113035
0.000119474
0.000106839
0.0001068
0.000106834
0.000106923
0.000107176
0.000107781
0.000109163
0.000111973
0.000119718
0.000103383
0.000103373
0.000103423
0.000103521
0.000103774
0.000104371
0.000105682
0.000107959
0.000110431
9.42787e-05
9.428e-05
9.43298e-05
9.44442e-05
9.47281e-05
9.53707e-05
9.67859e-05
9.9444e-05
0.000105876
0.000104006
0.000104029
0.000104083
0.000104212
0.000104484
0.000105164
0.000106608
0.000109036
0.00011301
8.28247e-05
8.28531e-05
8.29146e-05
8.30631e-05
8.34156e-05
8.42268e-05
8.59553e-05
8.91166e-05
9.67386e-05
0.00010422
0.00010422
0.000104285
0.000104451
0.000104841
0.000105736
0.000107621
0.000111106
0.000120642
0.000108267
0.000108259
0.000108329
0.00010851
0.00010893
0.000109853
0.000111776
0.00011523
0.000125424
0.000114306
0.000114289
0.000114363
0.000114553
0.000114984
0.000115918
0.000117766
0.000120963
0.000129523
0.000120606
0.000120572
0.000120652
0.000120855
0.000121308
0.000122269
0.000124133
0.000127258
0.000134925
0.000123667
0.000123626
0.000123714
0.000123935
0.00012442
0.000125439
0.000127413
0.000130886
0.000140996
0.000125
0.00012495
0.000125043
0.000125279
0.000125792
0.000126851
0.000128872
0.000132398
0.000141789
0.000112219
0.000112171
0.000112271
0.00011252
0.00011306
0.000114175
0.000116315
0.000120129
0.000132489
0.000114819
0.000114767
0.000114866
0.000115114
0.000115645
0.000116728
0.000118762
0.000122214
0.000132264
0.000110452
0.000110214
0.000110287
0.000110396
0.000110647
0.000111941
0.000115168
0.000123405
0.000145394
9.95478e-05
9.93041e-05
9.96249e-05
9.99199e-05
9.91274e-05
0.000101338
0.000104523
0.000110693
0.000131263
0.000101664
0.000101746
0.00010162
0.000102092
0.000102279
0.000103728
0.000106087
0.000114173
0.000134451
9.8119e-05
9.79649e-05
9.76976e-05
9.77664e-05
9.81634e-05
9.96441e-05
0.000102503
0.000109599
0.000128533
9.76378e-05
9.75144e-05
9.75527e-05
9.77093e-05
9.81195e-05
9.91655e-05
0.000101748
0.000108317
0.00012505
9.18271e-05
9.17607e-05
9.18345e-05
9.20056e-05
9.24063e-05
9.34052e-05
9.5956e-05
0.000102642
0.000120194
9.02166e-05
9.01767e-05
9.02468e-05
9.04111e-05
9.08064e-05
9.17878e-05
9.42836e-05
0.000100662
0.000116593
9.34618e-05
9.3441e-05
9.35122e-05
9.36777e-05
9.40713e-05
9.50249e-05
9.73694e-05
0.000103228
0.00011808
9.30055e-05
9.30205e-05
9.30952e-05
9.32721e-05
9.36903e-05
9.47037e-05
9.72349e-05
0.000103622
0.000119865
9.57887e-05
9.57765e-05
9.58551e-05
9.60485e-05
9.65043e-05
9.75961e-05
0.000100241
0.000106737
0.000122756
9.8949e-05
9.89535e-05
9.90398e-05
9.92614e-05
9.97893e-05
0.000101043
0.000104102
0.000111636
0.000129609
0.000104285
0.000104258
0.000104356
0.000104614
0.000105224
0.000106668
0.00011015
0.000118641
0.000138284
0.000105184
0.000105168
0.000105274
0.000105553
0.000106204
0.000107715
0.000111268
0.000119647
0.000138396
0.000109019
0.000108996
0.000109112
0.00010941
0.000110091
0.00011163
0.000115158
0.000123239
0.00014083
0.000111312
0.000111328
0.00011146
0.000111784
0.000112511
0.000114134
0.000117799
0.000126068
0.000143616
0.000111601
0.000111643
0.000111789
0.000112141
0.000112923
0.000114651
0.000118516
0.000127159
0.000145382
0.00010815
0.000108227
0.000108386
0.000108761
0.000109584
0.000111382
0.000115331
0.000123966
0.000141695
0.000106444
0.000106537
0.000106704
0.000107089
0.000107932
0.000109769
0.000113824
0.000122755
0.000141239
0.000101451
0.000101568
0.000101738
0.000102124
0.000102962
0.000104771
0.00010872
0.00011736
0.000135375
8.28125e-05
8.00928e-05
7.51668e-05
7.32581e-05
6.83825e-05
6.59407e-05
6.14432e-05
5.9697e-05
5.89746e-05
5.73256e-05
5.52123e-05
5.20665e-05
5.15947e-05
5.52176e-05
5.75762e-05
6.01281e-05
6.27719e-05
6.09747e-05
5.75615e-05
7.85467e-05
7.4842e-05
7.04573e-05
6.90726e-05
6.41122e-05
6.22989e-05
5.90491e-05
5.65683e-05
5.35514e-05
5.19941e-05
4.76421e-05
4.5168e-05
4.72491e-05
5.53576e-05
6.05373e-05
6.25074e-05
5.71576e-05
5.42653e-05
5.5356e-05
7.86431e-05
7.76298e-05
7.28453e-05
6.87885e-05
6.6293e-05
6.40283e-05
5.99992e-05
5.74235e-05
5.68616e-05
5.43769e-05
5.27668e-05
5.25728e-05
5.26689e-05
5.54272e-05
6.02321e-05
6.0287e-05
5.60176e-05
5.59453e-05
5.64178e-05
7.76041e-05
7.16167e-05
6.34797e-05
6.309e-05
6.21834e-05
5.91353e-05
5.75094e-05
5.43053e-05
5.36957e-05
5.11775e-05
4.82402e-05
4.4349e-05
4.41127e-05
5.04476e-05
5.90481e-05
5.98287e-05
5.8353e-05
5.31791e-05
5.12962e-05
7.48756e-05
7.06277e-05
7.02481e-05
6.71291e-05
6.12963e-05
6.10836e-05
5.88132e-05
5.76932e-05
5.43724e-05
5.48808e-05
5.2037e-05
5.17584e-05
5.41548e-05
5.66402e-05
5.72796e-05
5.72592e-05
5.38439e-05
5.09556e-05
5.32988e-05
7.35487e-05
7.03936e-05
6.12977e-05
5.48324e-05
5.60584e-05
5.70095e-05
5.62008e-05
5.62672e-05
5.28179e-05
5.7937e-05
4.86529e-05
4.7427e-05
4.38124e-05
4.77516e-05
5.06644e-05
5.40588e-05
5.49e-05
5.44736e-05
5.12798e-05
7.46627e-05
6.84578e-05
6.32262e-05
6.45086e-05
6.08902e-05
5.73381e-05
5.83215e-05
5.61547e-05
5.63323e-05
5.23521e-05
5.27459e-05
5.23764e-05
5.39524e-05
5.59011e-05
5.47439e-05
4.58998e-05
5.25486e-05
5.11859e-05
5.05873e-05
6.62675e-05
6.55076e-05
6.12904e-05
5.42662e-05
5.19951e-05
5.33091e-05
5.53306e-05
5.76691e-05
5.77998e-05
5.14299e-05
5.01964e-05
4.63387e-05
4.69647e-05
4.64223e-05
4.49019e-05
4.55934e-05
4.92422e-05
5.15249e-05
5.36587e-05
7.25021e-05
7.053e-05
6.17463e-05
5.49548e-05
6.1676e-05
5.781e-05
5.31019e-05
5.57118e-05
5.55599e-05
5.57488e-05
5.42767e-05
5.77639e-05
5.37038e-05
5.28095e-05
4.99496e-05
4.94282e-05
4.34358e-05
5.00485e-05
5.1083e-05
6.40251e-05
6.0437e-05
5.72369e-05
5.54807e-05
5.96203e-05
5.6989e-05
5.53439e-05
5.5506e-05
5.60419e-05
5.8691e-05
5.0175e-05
6.24438e-05
5.03466e-05
5.37521e-05
4.39941e-05
3.87482e-05
4.33212e-05
4.76531e-05
5.2831e-05
7.00755e-05
7.02912e-05
6.53735e-05
5.67763e-05
5.58718e-05
6.08299e-05
5.34395e-05
5.21334e-05
5.56076e-05
5.55295e-05
5.77304e-05
5.86094e-05
5.46002e-05
4.70265e-05
4.42312e-05
4.8671e-05
5.00854e-05
4.9743e-05
5.27998e-05
6.6052e-05
6.3065e-05
6.18258e-05
6.06203e-05
5.94111e-05
5.61623e-05
4.98657e-05
5.48785e-05
4.90179e-05
5.22361e-05
5.79556e-05
5.49576e-05
5.73286e-05
5.03212e-05
4.1151e-05
4.04519e-05
4.01639e-05
4.29703e-05
4.832e-05
7.08096e-05
7.18178e-05
6.9055e-05
6.54951e-05
5.79494e-05
6.05205e-05
5.90754e-05
5.664e-05
4.85954e-05
5.50564e-05
5.93736e-05
5.78396e-05
5.25477e-05
4.89694e-05
4.41844e-05
4.50905e-05
5.19666e-05
5.21215e-05
5.63259e-05
7.39009e-05
6.87107e-05
6.38696e-05
5.94361e-05
5.34197e-05
7.20044e-05
5.50784e-05
5.00003e-05
5.11166e-05
5.02523e-05
5.23608e-05
5.81788e-05
5.22839e-05
5.22592e-05
4.77559e-05
3.79509e-05
4.00937e-05
3.96829e-05
4.5935e-05
7.60027e-05
7.21567e-05
7.12182e-05
6.98843e-05
6.56911e-05
6.30215e-05
5.43659e-05
5.92972e-05
5.81215e-05
5.55328e-05
5.64e-05
5.5107e-05
4.99493e-05
5.21078e-05
4.68297e-05
4.93367e-05
5.23709e-05
5.8741e-05
6.15685e-05
7.42657e-05
6.90483e-05
6.55418e-05
5.99062e-05
5.30382e-05
5.07531e-05
7.1796e-05
5.2606e-05
5.11674e-05
4.94283e-05
4.84583e-05
4.88615e-05
5.35307e-05
4.45779e-05
4.85105e-05
4.5962e-05
4.40961e-05
4.47775e-05
4.72102e-05
7.70129e-05
7.50079e-05
7.12436e-05
7.04316e-05
6.58466e-05
6.06008e-05
6.36181e-05
5.74969e-05
6.16669e-05
5.74045e-05
4.87715e-05
4.72858e-05
4.97559e-05
4.73654e-05
4.78573e-05
5.1912e-05
5.77818e-05
6.15053e-05
6.37582e-05
7.29306e-05
6.86251e-05
6.14279e-05
7.8741e-05
5.79855e-05
5.29732e-05
4.95263e-05
7.12339e-05
5.27394e-05
4.89548e-05
4.28391e-05
3.67271e-05
4.69261e-05
4.96153e-05
4.80237e-05
4.49621e-05
4.92723e-05
5.12505e-05
5.41232e-05
7.83504e-05
7.24874e-05
6.95167e-05
6.77025e-05
6.86709e-05
6.51624e-05
6.42197e-05
6.00924e-05
5.5454e-05
5.45536e-05
5.38803e-05
4.52955e-05
5.03825e-05
5.13953e-05
5.23187e-05
5.54497e-05
5.92457e-05
6.05101e-05
5.76419e-05
7.2366e-05
6.79239e-05
6.17054e-05
5.43275e-05
7.55363e-05
5.88822e-05
5.54304e-05
4.93692e-05
6.68936e-05
4.94493e-05
5.27047e-05
4.38605e-05
4.36992e-05
4.95484e-05
4.82983e-05
5.10619e-05
5.33772e-05
5.67898e-05
5.51626e-05
7.445e-05
6.94653e-05
6.6186e-05
6.97643e-05
6.68816e-05
6.85043e-05
6.7393e-05
6.26052e-05
5.19873e-05
5.97326e-05
5.12395e-05
5.40263e-05
4.92582e-05
5.77874e-05
5.56865e-05
5.62386e-05
5.71072e-05
5.58823e-05
5.61058e-05
7.25e-05
6.69581e-05
5.94883e-05
7.49537e-05
6.12869e-05
6.32142e-05
5.54174e-05
5.22105e-05
3.97487e-05
6.15402e-05
4.63786e-05
4.08991e-05
4.23598e-05
4.78825e-05
5.19663e-05
5.34632e-05
5.59745e-05
5.56259e-05
5.27044e-05
7.17967e-05
6.74478e-05
6.43267e-05
6.4743e-05
6.86098e-05
6.83294e-05
6.5769e-05
5.95927e-05
5.11752e-05
5.05808e-05
6.19722e-05
5.53075e-05
5.4457e-05
5.70156e-05
5.72584e-05
5.50585e-05
5.51887e-05
5.48145e-05
5.4188e-05
7.15436e-05
6.71448e-05
6.32213e-05
6.31184e-05
6.34406e-05
5.61028e-05
6.82993e-05
5.24091e-05
5.34923e-05
3.77968e-05
6.01397e-05
4.61908e-05
4.52975e-05
4.86292e-05
5.12863e-05
5.33782e-05
5.41676e-05
5.2158e-05
5.25614e-05
7.55438e-05
7.14975e-05
6.85435e-05
6.84738e-05
6.64399e-05
6.45265e-05
5.83231e-05
5.80736e-05
5.41091e-05
4.99884e-05
5.08991e-05
5.01391e-05
5.78118e-05
5.83333e-05
5.46025e-05
5.60296e-05
5.60629e-05
5.7575e-05
5.60299e-05
7.4646e-05
6.89926e-05
6.82883e-05
6.73496e-05
5.83639e-05
6.91646e-05
4.28671e-05
6.20097e-05
4.30818e-05
4.25765e-05
4.24097e-05
4.93222e-05
4.76633e-05
5.23829e-05
5.0108e-05
5.30151e-05
5.25431e-05
5.32641e-05
5.23812e-05
8.16768e-05
7.87056e-05
7.74793e-05
7.28589e-05
6.43011e-05
5.45956e-05
5.68402e-05
5.38681e-05
5.53657e-05
5.40146e-05
5.40762e-05
5.62423e-05
5.58042e-05
6.27975e-05
5.77024e-05
5.60996e-05
5.91676e-05
5.93214e-05
5.91414e-05
7.83522e-05
7.55466e-05
7.36524e-05
6.76994e-05
7.15726e-05
4.15319e-05
6.36219e-05
3.9373e-05
5.86058e-05
4.6083e-05
4.22176e-05
5.06025e-05
4.90748e-05
5.54539e-05
5.42021e-05
5.17981e-05
5.57201e-05
5.49591e-05
5.66701e-05
8.87878e-05
8.86458e-05
8.31978e-05
7.1243e-05
5.41854e-05
5.45494e-05
5.01978e-05
5.50908e-05
5.44246e-05
5.68096e-05
6.0001e-05
6.13283e-05
5.77753e-05
6.0663e-05
6.44854e-05
6.25889e-05
6.07824e-05
6.35493e-05
6.15155e-05
8.39194e-05
8.20888e-05
7.49803e-05
7.22549e-05
4.24106e-05
6.72216e-05
3.75269e-05
5.89969e-05
4.39604e-05
4.99297e-05
4.9264e-05
4.56076e-05
5.12943e-05
5.73611e-05
5.98166e-05
5.48606e-05
5.58914e-05
6.07197e-05
5.96054e-05
9.77685e-05
9.22883e-05
8.32902e-05
7.75906e-05
8.48517e-05
4.68566e-05
5.24768e-05
5.27517e-05
5.84866e-05
6.15271e-05
6.39766e-05
6.6226e-05
6.55601e-05
6.14033e-05
6.06785e-05
6.61948e-05
6.87265e-05
6.7709e-05
6.80363e-05
9.07808e-05
8.3883e-05
7.38371e-05
8.68395e-05
7.18285e-05
4.26213e-05
6.28002e-05
4.36718e-05
5.32315e-05
5.45211e-05
5.53824e-05
5.53113e-05
5.62014e-05
6.13237e-05
6.26706e-05
6.18979e-05
5.85932e-05
6.13178e-05
6.54349e-05
9.79411e-05
8.88807e-05
8.06756e-05
6.0057e-05
7.6129e-05
8.65758e-05
5.36946e-05
5.72099e-05
6.12651e-05
6.75562e-05
6.91708e-05
6.8647e-05
6.99817e-05
7.1103e-05
6.44341e-05
6.42117e-05
7.18065e-05
7.24161e-05
6.90691e-05
8.87102e-05
8.21363e-05
7.43857e-05
5.05395e-05
8.80429e-05
7.11462e-05
4.60167e-05
6.00953e-05
5.08196e-05
5.54001e-05
6.07303e-05
6.17634e-05
6.2024e-05
6.65201e-05
6.47279e-05
6.84983e-05
6.62363e-05
6.26868e-05
6.46079e-05
9.22681e-05
8.11253e-05
8.01995e-05
7.91477e-05
7.50879e-05
7.68873e-05
6.5133e-05
6.29563e-05
6.53003e-05
7.25273e-05
7.29199e-05
7.08412e-05
7.0134e-05
7.63527e-05
7.59117e-05
7.15736e-05
7.10594e-05
7.72129e-05
7.29877e-05
8.34052e-05
7.93766e-05
7.47301e-05
7.14152e-05
6.02805e-05
8.78948e-05
6.02282e-05
6.26088e-05
6.01242e-05
6.44076e-05
6.51786e-05
6.72569e-05
6.81601e-05
7.23968e-05
7.05006e-05
7.03168e-05
7.42964e-05
7.00409e-05
6.83268e-05
8.68209e-05
0.000106369
8.15217e-05
8.02617e-05
8.24404e-05
7.62947e-05
7.88908e-05
6.61121e-05
7.11242e-05
7.56791e-05
7.56354e-05
7.52775e-05
7.66286e-05
7.96737e-05
8.02415e-05
8.01555e-05
7.76162e-05
7.51096e-05
7.66902e-05
7.9714e-05
8.25634e-05
7.54061e-05
7.10766e-05
8.86318e-05
5.61195e-05
9.51528e-05
5.9044e-05
6.90424e-05
6.92842e-05
7.24248e-05
7.3103e-05
7.33e-05
7.96222e-05
7.83099e-05
7.36177e-05
7.73774e-05
7.98782e-05
7.39412e-05
0.00019691
0.000168505
0.000185902
0.000204269
0.000184279
0.00016454
0.000156061
0.000145172
0.000135482
0.000124606
0.000121416
0.000117225
0.000108281
9.96182e-05
9.8409e-05
9.03049e-05
8.34255e-05
8.16366e-05
8.50867e-05
0.000181476
0.000209269
0.000207816
0.000209393
0.000199543
0.000182005
0.000165798
0.00015648
0.000144177
0.000129557
0.000127048
0.000118821
0.000107727
0.000101214
9.46382e-05
8.4504e-05
8.60245e-05
8.55165e-05
8.09956e-05
0.000210965
0.000177248
0.000199245
0.000176687
0.000163585
0.000186963
0.000171522
0.000155771
0.000146488
0.000132063
0.000128901
0.000124271
0.000111237
0.000109204
9.96112e-05
8.82671e-05
8.06791e-05
8.32896e-05
8.23705e-05
0.000214301
0.000222252
0.000218059
0.000210541
0.000201506
0.000199353
0.000189705
0.000165413
0.000155111
0.000138437
0.000131058
0.000118651
0.000112586
0.000113639
9.75591e-05
8.93569e-05
8.94895e-05
8.73468e-05
8.40774e-05
0.000201029
0.000175077
0.00020253
0.00019682
0.000182987
0.00019628
0.00017864
0.000164091
0.000149253
0.000140964
0.000129865
0.000120773
0.000114266
0.000115905
0.00010346
8.72168e-05
8.99794e-05
8.85e-05
8.46029e-05
0.00019335
0.000218628
0.000218882
0.000215274
0.000208171
0.000207832
0.000194152
0.000176485
0.000157448
0.000147459
0.000136699
0.000127278
0.000123829
0.000116706
9.76296e-05
9.24754e-05
9.27989e-05
8.92343e-05
7.80107e-05
0.000226071
0.000202571
0.000224382
0.00021222
0.000193907
0.000172077
0.00015086
0.000179541
0.000162062
0.000150398
0.000132221
0.000124629
0.000119633
0.00011514
9.97259e-05
9.36792e-05
9.76754e-05
8.97258e-05
8.03401e-05
0.000204335
0.000230259
0.000231033
0.000226731
0.000216362
0.000203419
0.000189678
0.000184783
0.000163925
0.000158696
0.000143167
0.000134318
0.000128933
0.000110457
9.96914e-05
0.000101433
9.9074e-05
8.94505e-05
7.28143e-05
0.000220062
0.000203109
0.000224734
0.000208051
0.000191225
0.000185877
0.000183401
0.000180047
0.000165079
0.000153817
0.000144417
0.000128732
0.000123439
0.000113455
0.000102795
0.000104893
9.61755e-05
8.49799e-05
7.70105e-05
0.000206469
0.000237663
0.000240087
0.000229269
0.00021523
0.000204827
0.000195614
0.000191706
0.000180156
0.000165305
0.00014633
0.000138887
0.000129135
0.000111529
0.000106079
0.000106772
9.64523e-05
8.02215e-05
7.0018e-05
0.000231439
0.000204546
0.000241534
0.000205657
0.000205686
0.000188526
0.000175748
0.000197094
0.000176218
0.000153897
0.000145187
0.000137707
0.000128776
0.000113703
0.000108746
0.000104109
9.39819e-05
8.28462e-05
7.44098e-05
0.000216745
0.000234136
0.000238139
0.000226391
0.000216921
0.000210004
0.000199874
0.000198602
0.000186075
0.000169118
0.000156327
0.000141557
0.000132017
0.000112791
0.000114881
0.000106165
8.89398e-05
7.61959e-05
6.87972e-05
0.000246686
0.000221303
0.000218752
0.000223201
0.000218467
0.00019913
0.000194023
0.000170467
0.000159236
0.000172639
0.000151542
0.000139489
0.000126905
0.00011641
0.000113714
0.000101142
9.10974e-05
8.04436e-05
7.42525e-05
0.000223768
0.00025186
0.0002483
0.000240418
0.000227601
0.000217407
0.000208167
0.000192334
0.000182282
0.000176206
0.000162025
0.0001451
0.000129056
0.000116511
0.000122127
0.00010061
8.40917e-05
7.35161e-05
7.28991e-05
0.000209073
0.000241214
0.000246193
0.000221471
0.000232327
0.000211026
0.000200705
0.000183276
0.000188019
0.000170371
0.00015823
0.000140638
0.00012892
0.000119656
0.000112738
0.000100762
8.79518e-05
7.85163e-05
7.45479e-05
0.000223943
0.000248686
0.000256976
0.000244902
0.000236234
0.000224682
0.000213071
0.000195856
0.000184239
0.000178174
0.000160335
0.000146794
0.000130195
0.000123385
0.000117211
9.6061e-05
7.96468e-05
7.59688e-05
7.86189e-05
0.000216597
0.000274246
0.000261321
0.000243272
0.000231615
0.000220125
0.000179515
0.000177635
0.00018769
0.000175071
0.000158375
0.000142236
0.000128918
0.000117414
0.000114921
0.000102292
8.67563e-05
8.19033e-05
8.07414e-05
0.000240444
0.00027147
0.000267106
0.000252701
0.000243199
0.000227172
0.000207677
0.000199377
0.000188817
0.000178322
0.000165398
0.000152113
0.000136123
0.000122277
0.000115901
9.71888e-05
8.13836e-05
8.32686e-05
8.02799e-05
0.000231511
0.000264516
0.00026066
0.000234196
0.00022992
0.000223826
0.000201445
0.000202765
0.000173471
0.000174851
0.000156578
0.000153999
0.000133541
0.000117489
0.000117437
0.000102593
8.65441e-05
8.40994e-05
8.19446e-05
0.000241464
0.000273558
0.000277204
0.000257219
0.000248748
0.000235041
0.000222003
0.000212496
0.000193212
0.000180886
0.000169196
0.00014798
0.000142401
0.00012416
0.000115725
9.73085e-05
9.25792e-05
8.79367e-05
7.88688e-05
0.000260472
0.000273076
0.000274075
0.000268054
0.000232695
0.000229613
0.000218491
0.000198634
0.000193854
0.000190102
0.000153181
0.000156357
0.000133774
0.000120389
0.000115845
0.000104751
8.77414e-05
8.344e-05
7.79809e-05
0.000257249
0.000278077
0.000284467
0.000268527
0.000249763
0.00023872
0.000235363
0.00020666
0.000199875
0.000197675
0.000166133
0.000151196
0.000142527
0.000128802
0.000115879
0.000103038
9.73321e-05
8.8691e-05
7.82546e-05
0.000243099
0.000263474
0.000263317
0.00026217
0.000246774
0.000227464
0.000209951
0.000188386
0.000202641
0.000185469
0.000159723
0.000151014
0.000141084
0.00012724
0.000113104
0.000101924
9.2729e-05
8.6688e-05
7.8389e-05
0.000253187
0.000284303
0.000281905
0.00027948
0.000266108
0.000250556
0.000228106
0.000209902
0.00020471
0.000191155
0.000170755
0.000157363
0.000141202
0.000133126
0.000116015
0.000101672
9.81832e-05
8.93249e-05
7.76471e-05
0.000286456
0.000309949
0.000287368
0.000280198
0.000246541
0.000251438
0.000227904
0.000205359
0.000219709
0.000174127
0.000165696
0.000151479
0.000137889
0.000127931
0.000116213
0.0001005
9.46308e-05
9.07024e-05
7.96817e-05
0.000271305
0.000306111
0.000292104
0.000277091
0.00026589
0.000255194
0.000236347
0.000221448
0.0002076
0.000190162
0.000175436
0.000159006
0.00013637
0.00012942
0.000118924
0.000101864
9.53975e-05
9.06699e-05
7.40637e-05
0.000285147
0.000304371
0.000278664
0.000284665
0.000275349
0.00026074
0.000223182
0.000230875
0.000193603
0.000181516
0.000165171
0.000161304
0.000138197
0.000128119
0.000121832
0.000101517
9.6507e-05
9.33335e-05
8.51171e-05
0.000269811
0.000299129
0.000295463
0.000298266
0.000278749
0.000261643
0.000241453
0.000224297
0.000199141
0.000185433
0.000173481
0.000153974
0.000141684
0.000120055
0.000117954
0.000103394
9.54431e-05
9.33339e-05
8.67053e-05
0.000294811
0.000319793
0.00031574
0.000284483
0.000255006
0.000253981
0.000244395
0.000222315
0.000202641
0.000191839
0.000169502
0.000163062
0.000139821
0.000124487
0.000125662
0.000113145
0.000104316
9.95724e-05
9.37334e-05
0.000278694
0.000314679
0.000310771
0.000293001
0.000276131
0.000261799
0.00024401
0.000221016
0.000204933
0.000199066
0.000183324
0.000157714
0.000150947
0.000124867
0.000117418
0.000115948
9.79313e-05
9.11972e-05
8.76931e-05
0.000314399
0.000327009
0.000306145
0.000313643
0.000293162
0.000243932
0.000221001
0.000230054
0.000223705
0.000193902
0.000169959
0.000160606
0.000147704
0.000131779
0.000125976
0.000124622
0.000113636
0.000107049
0.00010118
0.000288131
0.000320305
0.000302854
0.00030101
0.000283629
0.000254642
0.000236953
0.000219763
0.000216851
0.000202492
0.00017879
0.00016717
0.00015066
0.000138761
0.000123608
0.00012289
0.000108454
9.48398e-05
9.19313e-05
0.000311698
0.00032339
0.00031103
0.000295745
0.000287603
0.000264784
0.000252644
0.000228528
0.000245463
0.000178035
0.000174552
0.00016656
0.000148918
0.000138625
0.000127774
0.00012776
0.000116473
0.000106548
0.000103186
0.000273942
0.000316401
0.000308951
0.000296017
0.000276861
0.000260003
0.000247116
0.00023307
0.000219827
0.000194768
0.000182142
0.000170101
0.000149823
0.00014228
0.000131139
0.000122537
0.000118779
0.00010167
9.33877e-05
0.000307525
0.000357802
0.000319892
0.000312777
0.000261225
0.000270718
0.000263598
0.000238042
0.000219056
0.000198197
0.000178211
0.000162003
0.000157876
0.000137701
0.00013224
0.000122334
0.000119307
0.000107074
9.96867e-05
0.000278435
0.000303161
0.000298633
0.000287207
0.000271099
0.000259403
0.000250897
0.000235572
0.000212939
0.00019979
0.000188792
0.000159595
0.000153724
0.000138343
0.000134333
0.000117391
0.000117887
0.000105997
8.94679e-05
0.000307433
0.000346634
0.00031524
0.000335194
0.000291529
0.00027981
0.000249465
0.000219135
0.000225988
0.000215444
0.000184338
0.00016994
0.000155293
0.000142514
0.000131539
0.000118548
0.000116114
0.000107063
9.51374e-05
0.000272972
0.000300286
0.000307356
0.000295347
0.000284917
0.000274771
0.000256771
0.000238131
0.000220153
0.000219489
0.000191801
0.000170358
0.000153521
0.000140936
0.000132022
0.000118172
0.000108601
0.00010602
9.02779e-05
0.000192919
0.000212185
0.000238176
0.000180931
0.000161148
0.00015428
0.000138894
0.000130747
0.00012747
0.000114208
0.000105601
0.000108467
0.000100365
9.24212e-05
9.5333e-05
8.98949e-05
8.14124e-05
7.82151e-05
8.1598e-05
0.00015408
0.000183798
0.000172758
0.000157784
0.000147056
0.000132936
0.000120594
0.000124381
0.000113327
0.000102442
9.98823e-05
9.97246e-05
9.17581e-05
8.91708e-05
8.98747e-05
8.18536e-05
7.7782e-05
7.48393e-05
7.76952e-05
0.00016889
0.000178039
0.000157222
0.000150372
0.000137702
0.000120379
0.000104106
0.000103544
9.63694e-05
8.86397e-05
8.81133e-05
8.97556e-05
8.3943e-05
8.40192e-05
8.2769e-05
7.57435e-05
7.19061e-05
7.43255e-05
7.8483e-05
0.000207916
0.000206238
0.00017444
0.000133903
0.000112942
9.8834e-05
8.75907e-05
9.07025e-05
8.7209e-05
7.9626e-05
8.00635e-05
8.1344e-05
7.86301e-05
7.8839e-05
7.82532e-05
7.00275e-05
6.49611e-05
6.89111e-05
7.6337e-05
0.000181071
0.000203714
0.000162264
0.000128607
0.000111277
9.08399e-05
8.28188e-05
7.83585e-05
7.73709e-05
7.30713e-05
7.45724e-05
7.43931e-05
7.36945e-05
7.34575e-05
7.07585e-05
6.69982e-05
6.29294e-05
6.60607e-05
7.3273e-05
0.000153256
0.000197475
0.000141423
0.000112421
8.08187e-05
7.44033e-05
7.30697e-05
6.86193e-05
6.7838e-05
6.93456e-05
6.60683e-05
6.82667e-05
6.99867e-05
6.82644e-05
6.64116e-05
6.49178e-05
6.3209e-05
6.50134e-05
6.75725e-05
0.000204077
0.000182149
0.00012669
9.57482e-05
7.97463e-05
6.88155e-05
6.18009e-05
6.14175e-05
6.4865e-05
6.31314e-05
6.35082e-05
6.45365e-05
6.57799e-05
6.64372e-05
6.51118e-05
6.25219e-05
5.8813e-05
6.25512e-05
6.50132e-05
0.000119374
0.000161621
0.000111894
9.9477e-05
6.72709e-05
5.97209e-05
5.71213e-05
5.52701e-05
5.5399e-05
6.10704e-05
6.05841e-05
6.22808e-05
6.60549e-05
6.692e-05
6.31228e-05
6.04895e-05
5.7617e-05
6.42675e-05
6.0852e-05
0.000186904
0.000176061
0.000116655
9.1787e-05
7.13714e-05
6.30206e-05
4.9053e-05
5.27218e-05
5.90152e-05
5.78434e-05
6.10825e-05
6.32443e-05
6.71956e-05
6.78404e-05
6.60808e-05
5.93021e-05
5.71171e-05
6.54323e-05
6.03146e-05
0.000144491
0.000128822
0.000123706
9.32757e-05
7.3385e-05
6.11125e-05
5.75504e-05
5.37963e-05
5.97197e-05
6.03747e-05
6.3186e-05
6.26687e-05
6.70907e-05
6.53976e-05
6.55903e-05
5.70172e-05
5.72279e-05
6.22429e-05
5.7771e-05
0.000153934
0.000156522
0.000139629
9.51675e-05
8.14171e-05
7.02096e-05
6.41285e-05
5.71505e-05
6.23685e-05
6.03002e-05
6.56001e-05
6.46338e-05
6.82566e-05
6.41935e-05
6.86009e-05
6.19221e-05
5.43164e-05
5.62117e-05
5.56547e-05
0.000173197
0.000178439
0.000116221
9.97109e-05
0.000100859
7.36181e-05
6.84586e-05
6.50393e-05
6.43461e-05
6.58789e-05
6.92748e-05
6.78473e-05
7.38323e-05
6.58354e-05
7.1004e-05
6.55171e-05
5.75743e-05
5.3104e-05
5.25487e-05
0.000189553
0.000177639
0.000143933
0.000129987
0.000104454
8.7744e-05
8.0672e-05
7.4952e-05
7.55452e-05
7.52416e-05
7.23607e-05
7.18522e-05
7.50712e-05
6.55264e-05
6.43863e-05
6.71472e-05
5.90182e-05
5.50352e-05
5.23622e-05
0.000169587
0.000190552
0.000175629
0.000123249
0.000103444
0.000101035
8.8731e-05
8.22136e-05
8.0374e-05
8.0011e-05
7.49044e-05
7.21844e-05
6.62076e-05
6.85697e-05
6.32627e-05
6.05783e-05
6.03908e-05
5.68516e-05
5.52166e-05
0.000178303
0.000178629
0.000171203
0.00016176
0.000139099
0.000101231
8.886e-05
8.56819e-05
8.37467e-05
7.55131e-05
7.08655e-05
7.00945e-05
6.4861e-05
6.7382e-05
6.18322e-05
6.03613e-05
5.97423e-05
5.98322e-05
5.68666e-05
0.000189354
0.00019747
0.000198245
0.000152222
0.000144538
0.000103485
8.99049e-05
8.29369e-05
7.96485e-05
7.50136e-05
7.22194e-05
6.83296e-05
6.43425e-05
6.484e-05
6.36525e-05
6.18078e-05
6.27515e-05
6.11104e-05
6.23687e-05
0.000177804
0.000205636
0.000187296
0.000161179
0.000129616
9.63794e-05
8.76434e-05
8.00218e-05
7.37991e-05
7.37179e-05
7.17746e-05
7.08173e-05
6.66265e-05
6.3811e-05
6.58411e-05
6.49524e-05
6.61e-05
6.68678e-05
6.56556e-05
0.000205363