/*--------------------------------*- C++ -*----------------------------------*\
| =========                 |                                                 |
| \\      /  F ield         | foam-extend: Open Source CFD                    |
|  \\    /   O peration     | Version:     3.1                                |
|   \\  /    A nd           | Web:         http://www.extend-project.de       |
|    \\/     M anipulation  |                                                 |
\*---------------------------------------------------------------------------*/
FoamFile
{
    version     2.0;
    format      ascii;
    class       volScalarField;
    location    "172800";
    object      DSigmaSum;
}
// * * * * * * * * * * * * * * * * * * * * * * * * * * * * * * * * * * * * * //

dimensions      [1 -1 -2 0 0 0 0];

internalField   nonuniform List<scalar> 
21211
(
103.196
103.301
103.364
103.451
103.477
104.389
106.275
110.792
125.861
132.473
132.263
132.319
132.406
132.647
133.642
136.252
143.402
166.174
103.42
103.569
103.622
103.734
103.997
104.75
106.696
111.828
129.197
129.205
128.992
129.041
129.188
129.545
130.532
133.226
140.964
165.265
106.939
107.183
107.247
107.378
107.687
108.472
110.491
115.829
133.202
132.991
132.806
132.864
133.026
133.415
134.446
137.225
145.08
168.432
111.901
112.112
112.176
112.309
112.631
113.455
115.587
121.299
140.345
137.588
137.523
137.589
137.755
138.167
139.252
142.174
150.404
175.317
115.432
115.749
115.823
115.958
116.301
117.159
119.355
125.212
145.201
136.831
136.913
136.993
137.17
137.604
138.744
141.8
150.406
176.024
128.279
128.51
128.583
128.731
129.066
129.969
132.341
138.468
158.858
141.125
141.345
141.436
141.616
142.069
143.267
146.492
155.507
182.233
112.653
112.852
112.931
113.094
113.504
114.514
117.063
123.863
147.271
145.121
145.519
145.626
145.823
146.324
147.613
151.043
160.736
189.447
141.77
141.869
141.922
142.078
142.486
143.474
146.078
152.577
173.981
153.667
154.096
154.199
154.402
154.925
156.272
159.845
169.649
197.704
129.34
129.328
129.387
129.575
130.026
131.154
133.876
140.949
165.185
162.582
162.923
163.027
163.246
163.797
165.212
168.946
179.421
209.39
146.05
146.016
146.124
146.334
146.794
148
150.555
158.451
183.462
169.585
169.827
169.95
170.201
170.796
172.264
176.148
187.286
217.474
147.188
147.066
147.143
147.358
147.914
149.601
181.062
159.964
187.087
173.736
173.712
173.822
174.114
174.887
177.197
185.549
194.677
226.044
165.309
165.294
165.384
165.602
166.117
166.941
148.791
178.879
205.666
184.953
184.843
184.95
185.249
185.969
187.649
191.63
204.767
238.088
175.026
175.175
175.282
175.518
176.078
177.34
179.729
187.482
216.346
182.321
182.117
182.235
182.573
183.391
185.394
190.529
204.173
240.117
182.018
182.316
182.443
182.703
183.316
184.728
187.903
195.337
224.721
187.272
187.184
187.33
187.711
188.623
190.833
196.349
210.578
247.457
198.048
198.341
198.475
198.753
199.394
200.839
203.989
211.173
238.016
194.221
194.104
194.26
194.674
195.656
198.002
203.741
218.144
253.887
197.48
197.728
197.87
198.168
198.848
200.364
203.634
211.115
241.875
198.084
198.031
198.209
198.656
199.703
202.184
208.211
223.232
260.402
203.373
203.615
203.764
204.073
204.766
206.27
209.387
216.32
246.991
200.301
200.204
200.39
200.864
201.963
204.537
210.687
225.583
261.032
206.089
206.325
206.478
206.794
207.495
208.999
212.054
218.597
245.941
202.805
202.713
202.907
203.399
204.533
207.179
213.495
228.821
265.493
208.978
209.163
209.316
209.632
210.325
211.786
214.674
220.644
247.463
200.889
200.783
200.984
201.487
202.637
205.304
211.637
226.964
263.957
154.768
154.846
154.919
155.042
154.269
155.732
157.338
159.744
170.628
137.63
137.74
138.566
138.947
122.654
141.764
141.152
134.827
155.806
119.749
118.408
133.083
130.463
118.739
119.655
121.593
124.51
131.758
135.758
135.952
148.984
150.223
149.909
137.209
138.101
153.139
160.094
147.115
147.078
147.036
147.124
147.338
147.855
149.061
151.294
155.193
126.814
126.773
126.803
126.871
127.086
127.622
128.847
131.39
136.274
124.928
124.893
124.92
124.985
125.206
125.747
127.003
129.547
135.772
120.467
120.457
120.499
120.578
120.797
121.332
122.535
124.636
126.046
110.153
110.155
110.197
110.297
110.545
111.109
112.379
114.771
121.178
121.619
121.637
121.682
121.796
122.023
122.627
123.942
126.148
129.548
99.398
99.423
99.4756
99.6041
99.9189
100.642
102.207
105.247
114.974
123.688
123.685
123.74
123.884
124.226
125.025
126.732
129.979
140.363
127.689
127.683
127.743
127.902
128.272
129.101
130.871
134.118
144.7
134.829
134.815
134.879
135.046
135.428
136.271
137.97
140.931
149.375
143.017
142.989
143.058
143.236
143.638
144.498
146.19
149.035
156.643
146.969
146.934
147.01
147.204
147.634
148.545
150.333
153.486
163.164
147.881
147.84
147.923
148.132
148.589
149.545
151.395
154.659
163.829
134.419
134.378
134.465
134.685
135.164
136.167
138.127
141.721
154.569
136.154
136.11
136.199
136.42
136.897
137.883
139.761
142.97
152.745
123.867
123.698
123.791
123.851
123.87
124.99
127.646
134.351
156.236
112.695
112.534
112.946
113.331
112.766
114.296
116.905
122.816
143.577
114.445
114.437
113.947
114.353
114.426
116.002
117.875
124.287
146.911
113.035
112.938
112.716
112.796
113.103
114.357
116.756
123.045
143.922
111.124
111.018
111.031
111.157
111.497
112.379
114.533
120.275
139.025
104.243
104.187
104.248
104.391
104.718
105.528
107.608
113.33
131.98
102.37
102.336
102.393
102.526
102.845
103.636
105.664
111.118
129.775
104.836
104.819
104.875
105.006
105.319
106.077
107.953
112.927
130.583
104.519
104.529
104.588
104.729
105.061
105.866
107.892
113.327
133.474
108.223
108.215
108.279
108.434
108.801
109.684
111.84
117.447
136.281
111.564
111.567
111.637
111.813
112.235
113.237
115.717
122.25
143.455
117.785
117.763
117.841
118.048
118.536
119.694
122.519
129.887
152.061
119.411
119.396
119.483
119.709
120.237
121.465
124.4
131.804
153.071
123.973
123.953
124.048
124.292
124.851
126.121
129.083
136.278
155.695
127.509
127.52
127.63
127.899
128.504
129.862
132.974
140.357
159.129
128.399
128.431
128.553
128.847
129.501
130.953
134.242
141.915
160.669
125.67
125.734
125.868
126.185
126.883
128.417
131.842
139.649
157.763
123.267
123.342
123.482
123.806
124.517
126.078
129.583
137.728
157.534
119.338
119.439
119.584
119.916
120.638
122.209
125.687
133.602
152.444
99.8798
97.9106
92.2375
89.3256
85.2183
81.8981
76.7694
75.075
73.8658
72.0217
69.8348
66.9232
66.6447
69.9842
72.2543
73.7359
76.7347
75.3965
72.2733
96.3549
89.4246
85.306
83.2291
77.7372
75.3268
72.0464
69.3274
66.3725
64.358
59.7612
57.672
60.9163
68.5263
74.0861
75.746
70.0257
67.4249
69.1187
96.6495
95.8059
91.5374
84.6965
81.3125
78.8747
74.3436
71.4121
70.4097
68.0305
66.8507
66.9305
67.8766
70.9846
75.7132
75.535
69.2503
69.1565
70.5351
94.4523
86.5889
77.2252
76.9574
75.8322
72.5802
70.6547
67.5329
66.5584
64.4123
60.6941
56.6918
57.0706
64.7224
72.8683
73.5879
71.3108
65.4756
63.9009
94.9513
87.6764
86.4723
83.568
76.5374
74.9708
72.5364
70.7413
67.397
67.3346
65.28
65.7852
69.1736
72.6575
73.1405
72.6513
68.3312
63.6532
66.708
89.9475
86.2271
75.7694
67.6221
69.1586
70.5548
69.5345
69.1579
66.1513
70.3126
61.9831
60.0959
56.3585
61.4001
65.189
67.6342
67.9658
67.0109
63.4396
93.7205
86.9127
78.4003
78.4636
75.729
72.0869
72.1106
70.6318
69.7568
65.4671
65.6184
66.3557
68.7646
71.2152
69.9954
62.1721
67.3586
65.4645
63.849
82.3068
81.1057
76.0443
67.3195
64.4138
65.5599
69.1404
70.9885
70.7325
64.4022
63.7947
59.5216
62.5744
60.0569
58.4805
59.4823
62.4679
64.5574
66.3515
90.245
87.6885
78.9982
68.6048
74.4665
73.4054
68.0615
70.9176
72.0894
70.6919
68.7519
71.6371
67.8684
67.0667
65.0267
64.3404
59.1412
65.0381
66.1934
79.9336
74.9386
70.7987
70.8891
73.1202
68.7244
66.531
69.4579
70.2731
71.8674
62.7666
76.1645
65.2715
67.3303
57.3864
52.3019
57.1105
61.0423
66.0593
86.8951
86.7239
81.9048
72.5632
70.075
75.7877
70.3806
68.0713
71.4628
72.9129
73.7663
73.7973
68.9329
60.7251
59.2902
63.8451
65.2329
65.558
69.0132
82.2631
78.6727
75.9784
74.6792
73.8398
69.7647
62.6272
66.7371
62.9242
67.8965
72.5669
69.6089
71.8318
65.5967
56.4567
52.8851
52.8897
56.8577
62.6498
89.1361
88.7789
86.3875
82.7837
75.8857
75.5437
74.0653
74.1041
66.6149
71.2256
76.4668
74.0714
67.3883
62.322
57.8008
60.7589
67.5047
68.71
74.0351
90.1006
84.2344
78.9868
73.7249
66.7063
84.6074
69.9974
63.3503
64.9192
65.5916
69.1732
73.0888
66.8924
66.0958
62.4558
52.335
52.5632
53.5035
60.6723
95.5105
90.7525
88.8214
86.8234
83.5618
80.12
68.91
74.7096
75.5934
72.6192
72.9235
72.225
65.0167
64.7939
60.1058
63.772
68.1201
75.5938
79.5731
90.9866
84.9007
80.9069
74.6329
67.1663
64.0815
85.4287
69.2566
66.0739
63.7248
63.6642
64.8616
67.8504
59.0548
61.4603
59.5147
57.589
58.4405
62.5209
97.2571
93.8011
89.0062
86.5474
82.1717
78.0455
79.9317
72.4378
77.8375
74.9293
65.2905
63.2024
65.7061
61.4902
62.2531
67.352
74.0334
78.4125
80.3153
90.1311
85.0477
76.7081
91.0997
73.6536
67.7071
64.5445
87.014
70.2301
63.6518
57.1017
53.1519
62.4452
64.4527
61.7796
58.6554
62.9637
66.2691
70.2062
98.1011
91.5517
87.6703
84.6681
84.3976
81.8605
81.7642
77.918
71.0286
69.8838
70.3534
60.7308
65.9085
67.2376
67.9758
71.5671
75.7016
76.581
73.9529
90.1777
84.7048
77.9755
70.415
89.3442
76.0514
71.3115
65.3929
82.1384
66.2102
64.7192
58.0257
58.2335
64.8653
63.2332
65.5
68.4608
72.8202
72.1195
94.6508
88.8659
84.5997
86.1875
83.7749
85.9978
85.1623
80.1998
69.2607
71.5431
66.1524
71.254
65.7464
74.4205
71.8833
72.3091
73.0436
71.8548
72.5342
90.9713
84.8204
76.4645
89.5935
79.5089
80.4423
71.9944
67.8219
56.8653
74.9462
62.1365
54.6101
56.2988
63.5167
67.5238
69.1121
71.9254
72.0748
68.8
94.2609
88.4828
83.7385
82.9177
86.6584
86.6551
82.614
75.6394
68.9588
67.758
73.6768
71.6257
72.7552
73.5768
73.2228
70.6662
70.7945
70.9463
70.4466
91.1795
86.1788
81.6843
81.8564
81.5012
72.8784
83.0679
69.2238
66.7675
53.6858
73.8437
61.2666
59.1623
62.9845
67.7239
69.6757
70.2216
67.8846
67.8445
99.4996
94.3343
90.2316
88.9226
86.0579
82.2669
75.9293
73.8926
69.5113
68.0463
68.5108
66.158
75.0523
75.836
71.1618
71.8203
72.0133
73.7278
72.3629
95.1834
89.1949
88.2464
86.6834
76.2423
85.1159
63.8468
76.4432
61.7431
57.3735
57.5697
64.712
62.784
67.067
65.9967
69.0216
68.266
68.3136
67.502
106.152
102.627
101.058
95.631
85.022
74.0038
73.9005
70.7039
71.0643
69.9483
73.0599
74.4483
73.7842
80.598
75.0076
73.3643
75.3307
75.8575
75.4439
99.7038
97.0634
94.5063
87.3606
89.4571
64.841
78.9491
58.8793
73.1427
63.1958
56.9412
64.8755
64.6335
72.3362
70.1273
67.2919
70.9306
70.1379
71.2101
114.125
113.71
107.782
94.4981
76.9504
74.6947
68.7187
72.0384
71.7807
74.1336
77.7753
80.4432
77.7275
78.7346
81.0829
80.472
78.6585
79.8646
77.4397
106.737
104.354
96.4121
93.0358
68.1909
84.3545
59.2624
74.5357
62.2884
65.4666
64.6949
60.4106
66.8023
74.7572
76.42
70.0367
70.6534
75.2787
74.4744
123.92
118.188
107.788
100.051
105.761
68.6855
72.1854
71.4455
76.8893
80.2736
82.9845
85.4982
86.4109
80.6895
78.0708
83.0847
86.7105
85.4553
84.3976
114.336
106.884
95.5221
104.396
91.6546
67.4551
80.4003
64.2727
69.6058
70.5312
71.8006
71.4218
72.225
77.8039
80.7286
77.8944
72.6714
75.4725
79.7401
124.285
114.425
104.621
86.73
98.7679
107.707
76.1918
77.1395
81.0121
87.6245
88.935
88.5776
90.2588
93.4262
84.131
81.4413
88.4195
90.5521
85.5288
112.536
104.833
96.5878
74.7587
105.417
90.6094
70.1524
78.3586
70.1295
72.3691
77.7083
79.0071
79.641
83.6851
81.5965
84.9132
81.3548
76.5378
79.1525
117.757
105.734
104.608
102.697
98.1222
99.1642
87.9609
83.9743
85.9923
93.2012
93.3351
91.5652
92.089
96.8093
95.2808
91.1727
88.3716
94.16
91.7817
106.426
102.076
96.7399
93.4204
81.9472
104.577
82.0076
81.9416
78.92
82.1488
83.4924
85.6167
86.4309
90.4024
87.0479
86.3864
90.2471
85.4046
82.8357
111.687
128.265
106.33
104.574
105.25
99.872
100.696
89.1715
92.905
97.2756
97.0955
96.886
99.9488
100.135
99.9392
100.054
97.3488
92.3207
92.6423
101.568
103.174
97.3418
93.3109
106.985
77.6909
111.376
80.4702
88.4639
88.6736
91.792
92.1756
92.0129
97.8721
95.5881
89.872
93.9045
96.2619
89.9874
215.241
191.329
219.769
232.886
211.887
194.079
184.737
175.077
165.553
153.254
148.008
143.192
132.741
122.406
120.56
111.703
102.13
98.986
102.404
201.843
229.086
233.629
235.075
225.028
208.245
189.5
182.411
169.291
152.713
149.616
140.305
128.621
122.204
115.29
104.237
105.453
102.908
97.3122
228.214
201.457
228.465
207.372
193.121
213.894
196.189
182.814
173.689
158.855
155.039
149.663
134.486
134.104
124.64
112.298
102.065
103.495
101.923
235.931
244.118
241.464
235.181
227.324
223.193
212.932
187.676
179.631
162.061
153.902
138.908
131.939
133.026
117.375
106.772
108.212
105.369
101.221
219.155
195.147
231.607
229.019
216.266
223.604
204.472
190.526
176.326
166.722
154.362
143.898
137.185
140.457
129.208
109.85
111.884
110.226
104.42
216.137
238.524
240.987
238.525
232.454
233.782
217.647
198.841
179.915
168.971
157.923
147.384
144.16
137.856
117.286
113.22
113.88
107.438
95.4527
241.021
221.35
254.75
242.635
225.394
205.252
181.274
205.614
187.595
175.231
155.646
148.531
142.378
139.781
125.073
117.422
120.559
112.377
100.932
218.106
248.628
252.131
249.815
241.413
227.579
214.487
208.325
184.584
180.095
163.878
155.419
149.135
132.91
119.8
123.182
118.473
107.784
91.0507
238.409
227.563
255.091
238.513
220.959
215.775
216.824
203.742
187.825
178.066
169.077
152.631
147.852
138.073
128.133
129.644
120.708
108.668
96.8333
220.877
257.372
263.145
253.661
240.286
228.327
218.572
215.396
202.232
188.143
165.753
159.784
150.632
131.244
126.992
128.267
116.829
100.157
87.2275
248.236
228.234
275.294
236.028
240.238
217.725
204.709
223.096
200.04
177.234
168.759
162.515
152.659
137.101
132.42
128.775
119.538
105.743
93.9691
229.325
255.619
261.185
250.978
240.628
234.181
223.893
222.698
208
190.729
176.992
162.865
152.717
131.575
135.133
127.697
109.909
95.543
86.1742
265.968
243.655
248.015
252.065
250.486
228.135
227.019
202.001
189.809
197.441
176.586
163.119
150.227
140.231
139.256
127.777
115.857
102.292
93.5944
240.04
271.682
273.279
265.453
251.171
241.838
231.862
214.754
204.258
198.148
185.022
165.326
150.078
136.237
143.696
122.726
105.131
92.4485
90.6666
226.455
274.157
281.094
248.891
272.791
244.165
234.982
213.432
226.352
194.36
182.825
163.423
152.301
144.021
138.794
126.491
111.488
99.0869
94.5286
240.322
271.704
284.492
269.299
259.783
250.229
239.362
219.794
205.272
200.855
180.852
166.416
150.099
144.239
140.082
117.769
98.3838
94.7797
96.3451
240.807
308.7
295.497
277.834
269.615
259.484
207.945
206.169
224.1
199.797
182.54
165.389
152.838
140.499
140.11
126.478
108.501
101.991
101.306
258.035
293.734
292.537
279.569
267.476
250.331
231.26
223.445
210.673
201.052
186.209
172.264
157.007
143.353
138.109
116.895
99.3514
101.579
98.0568
257.721
306.198
301.14
265.343
264.346
260.02
229.67
240.76
202.3
199.141
179.792
180.058
157.814
140.418
141.44
125.504
106.423
104.735
102.922
261.962
298.427
305.144
286.022
276.258
260.148
247.083
237.943
216.768
206.386
194.45
167.619
164.276
145.15
136.569
115.938
110.936
106.666
97.4821
284.505
312.832
309.212
309.748
268.775
267.544
258.17
236.263
224.262
216.398
176.782
181.952
158.143
143.101
140
128.334
109.46
106.185
99.6986
277.634
306.938
312.046
296.648
274.169
263.242
264.429
231.437
224.4
224.062
190.628
172.381
163.415
149.915
136.543
121.728
117.024
108.783
97.7958
272.513
303.67
304.154
301.555
286.808
264.298
246.005
216.785
238.338
211.962
183.409
176.232
167.074
152.36
138.568
126.237
117.014
111.603
102.482
274.731
313.326
313.641
310.592
295.198
279.876
254.573
235.132
231.981
216.903
196.303
180.106
162.085
154.735
137.245
121.598
118.938
110.397
97.5556
312.364
351.381
332.948
322.78
280.512
292.403
266.402
240.038
262.205
200.133
191.033
177.221
165.326
153.482
141.557
125.541
118.691
115.832
105.118
293.331
332.744
325.839
308.079
294.662
281.967
262.038
251.565
234.452
218.631
202.779
181.289
158.228
151.737
140.75
122.002
116.445
111.948
97.1975
318.437
351.252
321.615
326.308
322.638
305.962
258.077
274.147
226.629
209.623
191.923
189.411
165.462
154.127
147.508
126.913
120.182
118.397
110.296
297.929
330.716
330.561
332.557
309.727
291.21
271.128
251.943
227
214.82
203.528
175.734
166.515
142.504
139.957
124.953
116.774
114.726
108.746
328.05
364.454
361.657
327.143
291.518
292.73
285.839
259.105
232.307
221.745
196.761
191.427
166.423
150.374
151.309
137.824
129.097
124.809
119.205
303.314
347.332
343.99
325.285
307.614
292.188
273.303
249.825
234.818
230.996
214.761
181.123
175.196
149.131
139.38
138.208
119.263
113.266
110.01
338.661
372.46
352.718
359.714
339.816
281.562
253.255
264.478
256.883
224.547
198.391
189.156
175.934
158.844
152.32
150.083
139.054
133.11
127.399
313.566
349.838
339.125
338.1
315.224
285.231
270.444
249.312
248.941
236.206
208.492
193.543
174.572
163.866
148.588
145.486
131.261
117.266
115.754
342.725
367.716
351.871
338.966
331.767
303.872
291.949
263.453
289.625
207.287
203.855
195.533
177.439
167.009
154.438
153.714
143.913
132.121
129.209
307.488
353.728
349.197
333.729
312.108
293.249
278.626
266.958
251.964
226.582
212.274
197.257
174.908
166.94
157.258
145.76
142.342
125.058
117.266
355.142
401.635
364.424
353.012
292.935
308.069
303.579
275.091
250.959
229.856
207.175
192.737
185.854
165.377
159.93
148.107
144.733
133.22
125.226
312.58
342.86
334.716
325.601
310.379
293.8
285.159
269.459
243.618
231.635
219.349
185.131
180.527
162.125
159.79
141.814
141.036
129.929
112.636
338.948
388.361
362.999
382.614
333.128
317.595
283.352
253.998
260.563
248.497
214.533
199.668
183.897
169.682
158.939
145.494
141.166
132.515
120.461
311.839
343.13
354.883
335.926
324.515
311.382
290.805
272.358
251.534
251.772
218.963
198.621
178.506
165.869
155.895
143.197
131.686
128.251
112.399
210.939
237.092
270.679
213.851
193.14
185.768
168.805
160.838
156.45
141.602
131.277
133.732
123.995
114.871
117.424
113.515
101.272
95.8645
101.151
178.738
215.04
206.784
189.287
178.61
165.824
151.164
151.844
139.903
127.362
123.756
122.542
113.92
108.346
109.591
101.819
96.9233
92.1629
96.001
194.176
206.892
188.811
181.702
168.641
151.471
131.687
128.814
120.415
110.007
109.554
111.782
103.151
103.394
102.672
95.2675
89.3372
92.0224
95.9862
231.503
238.369
210.071
165.377
144.759
127.449
114.075
113.18
108.894
100.061
99.724
100.704
97.7686
97.4393
95.7848
87.2299
80.8057
86.3388
93.6492
208.006
238.711
199.499
158.775
141.295
115.598
106.155
98.9089
95.6199
91.5884
92.2942
91.9094
91.0874
89.4015
87.1859
82.7692
77.6591
82.1114
90.1513
174.939
234.269
179.508
144.062
110.195
100.612
94.4106
87.9899
83.7204
86.9415
84.1817
85.9591
86.7595
83.8884
83.2646
80.3266
77.4882
80.6802
83.3992
236.089
222.052
165.743
127.604
108.471
92.297
82.1713
78.0802
80.4012
79.7594
80.2319
81.3119
81.5774
83.1787
81.5984
77.5137
73.2316
78.331
80.7432
148.266
201.71
152.41
130.376
96.1729
82.7837
75.7182
71.7824
71.0052
77.6778
77.5216
79.0377
82.3834
83.086
80.1712
75.247
72.616
79.9078
76.9063
216.149
214.896
154.982
121.475
97.9184
83.5781
68.965
69.7359
75.895
75.1144
79.0896
80.9807
85.6499
84.3103
82.8537
74.726
72.5737
80.3287
75.8043
171.749
165.918
163.148
122.658
99.4871
83.2614
76.8012
72.7773
78.5194
79.076
82.6308
79.5524
85.7037
81.2471
80.3762
72.1862
72.597
76.9779
72.8094
178.073
191.766
180.885
130.136
108.693
91.7181
84.3495
77.3897
80.8442
79.5095
85.1965
80.9495
83.5829
79.2483
83.3641
76.7244
69.4709
70.9789
70.3151
201.542
215.948
153.264
134.045
127.878
96.4089
90.1211
84.6868
81.72
82.3065
85.8958
83.8726
88.218
80.4826
85.4385
80.1682
71.9589
65.999
67.008
211.397
209.433
176.477
159.93
128.305
108.7
100.453
92.9501
92.0097
90.2254
87.1196
87.7305
89.9813
78.9978
79.1199
81.756
72.726
67.756
65.6018
195.874
221.216
207.187
154.618
129.923
123.569
107.728
98.6027
95.9051
95.2374
89.6006
85.5213
81.3567
82.352
76.2643
74.1465
73.6511
69.7109
68.9517
199.985
199.154
201.38
192.949
169.163
122.918
107.479
103.908
100.22
90.2675
85.687
84.6692
78.7498
82.1248
75.5789
73.2009
73.9556
73.4438
69.3307
204.626
229.068
235.178
180.387
170.239
126.59
108.779
100.115
96.0813
89.997
85.7781
83.179
78.8156
77.4279
77.8497
74.4588
76.8376
75.8767
76.0982
199.345
230.977
216.776
192.44
155.737
117.795
107.492
98.1423
89.5648
88.9365
85.8474
84.1307
81.2341
77.6972
78.7753
78.9343
78.8051
81.9295
80.6477
229.066
212.198
205.398
193.899
160.158
119.39
106.375
101.823
93.5944
91.3009
92.0583
86.3568
86.2474
84.3548
81.179
83.4412
81.2131
81.0842
80.2148
213.134
231.769
199.048
170.033
144.801
120.936
107.017
100.952
95.6451
89.7908
91.0964
88.0784
83.964
85.1902
80.2401
78.524
78.5283
74.9858
76.2292
189.817
209.61
212.218
220.553
200.381
187.143
173.689
163.544
150.183
137.029
134.335
128.627
119.991
119.218
113.607
101.361
97.4506
95.7354
94.3777
188.981
236.073
208.669
188.847
186.097
163.04
151.593
143.553
131.855
123.626
121.02
115.202
109.674
112.407
107.677
93.8691
88.0872
88.5842
88.3618
180.123
196.165
190.394
176.27
171.733
145.498
134.237
122.561
112.757
106.247
107.782
102.763
98.9995
103.008
98.1164
86.0097
86.0664
89.4484
90.2942
169.84
191.347
188.16
164.017
149.237
124.036
107.294
104.139
97.9233
95.0721
97.2155
94.1273
93.5846
97.5817
90.543
81.4548
83.3614
85.6109
86.6721
158.769
177.844
173.281
156.094
135.169
108.242
98.3404
87.9063
86.9077
85.8877
85.1353
86.5127
86.0905
86.2566
84.5923
79.1077
78.0011
82.2922
84.8855
158.593
170.768
165.202
143.054
108.997
93.6758
80.5851
75.2301
75.0103
80.1616
78.6131
79.1734
78.6163
81.675
82.9338
73.626
74.9542
80.8143
80.758
149.895
163.66
155.564
125.122
95.3982
82.7995
72.136
66.6016
68.9831
72.0217
73.4181
73.7293
76.7402
81.0527
79.1874
72.8322
73.8313
77.2857
75.8365
142.702
154.667
141.271
121.526
88.1134
74.3297
63.8261
62.6294
62.9316
68.8572
72.3366
71.7951
80.3589
81.9349
78.3133
73.3396
74.2401
78.717
72.5091
148.692
158.908
147.506
124.312
87.3611
76.3329
61.1954
58.7058
64.6215
68.5981
73.5456
75.9436
81.874
83.8723
82.562
77.082
73.9975
74.7347
68.9321
149.287
159.928
148.743
125.602
100.721
81.4135
60.334
64.4954
67.908
76.3602
76.8066
79.335
87.3456
86.2803
79.5682
79.611
73.3928
71.2779
64.7086
160.242
169.763
156.416
134.061
110.577
93.5042
75.7436
69.5225
76.9517
82.0276
81.1103
80.9336
89.2647
85.8251
83.5695
77.8488
70.3262
69.4177
62.3193
172.338
178.112
160.175
137.031
125.297
105.016
89.1639
84.4612
82.9341
83.406
89.3594
89.6638
87.7378
82.3395
84.8287
75.5502
67.8291
70.596
63.6237
174.431
188.159
175.268
157.272
141.241
117.651
108.627
96.5899
94.1946
87.0242
89.2462
90.7011
83.7335
80.0594
78.2869
73.8021
66.4648
68.8257
67.931
174.374
190.66
183.592
160.978
139.238
125.762
110.262
93.2232
94.615
94.9319
87.8169
81.0975
81.0581
73.6946
73.0864
72.8893
67.7384
65.6872
69.9143
177.96
195.032
188.62
167.061
143.269
127.872
113.276
101.447
93.1194
89.2853
87.3362
80.5308
77.4724
77.819
70.6941
73.9947
70.9873
65.3947
69.6094
180.406
193.518
185.263
162.837
143.109
126.633
108.612
94.5543
90.5951
83.5238
83.1324
82.9872
73.4589
76.838
72.8501
70.6449
75.6096
71.2797
69.8053
177.319
186.716
180.02
157.503
136.265
121.267
105.075
88.5218
86.0129
84.768
78.5311
80.6991
78.4123
72.5765
77.7172
74.0063
77.1847
78.8169
73.0124
178.163
187.334
179.065
159.804
136.119
120.796
105.309
93.5289
84.9565
86.0801
83.9019
81.3847
83.4203
76.4916
77.464
78.0578
74.5802
78.5984
73.6939
171.966
182.716
176.899
165.674
144.639
123.049
107.805
94.8213
84.183
81.2255
84.4667
81.9029
80.0408
79.2075
74.012
77.1452
72.7487
73.2732
74.4468
190.119
188.187
185.172
166.125
142.451
114.529
100.228
95.1896
90.9372
85.4152
87.5112
86.3474
80.791
82.7316
77.7923
77.028
77.4955
73.4864
75.7122
167.342
173.484
166.854
152.687
134.954
118.382
102.055
91.159
81.1355
78.072
82.5932
79.8066
77.6634
77.7781
72.4678
76.3839
71.8061
71.8492
72.8432
194.966
186.313
176.061
169.648
144.442
115.258
104.57
100.002
91.8023
90.1998
91.5751
86.3388
86.0014
82.5904
78.6338
79.3617
74.2467
73.4889
72.2526
173.589
177.735
167.593
153.011
133.649
117.841
102.872
90.5208
82.8975
83.4389
85.8949
80.8093
81.1983
74.0897
75.2899
75.1336
69.1473
73.7044
69.0767
183.368
186.869
190.94
172.03
147.352
127.973
120.835
108.64
102.483
99.9592
98.6562
93.5888
91.1792
84.8586
84.236
79.9325
75.4609
75.9997
71.885
181.107
188.121
182.844
163.246
141.294
129.174
115.14
97.1945
93.1164
95.6504
91.8645
91.3135
85.8342
78.687
82.7709
75.1176
73.8857
73.0873
64.317
193.431
208.503
187.82
167.218
145.383
129.807
116.235
111.926
110.658
106.373
103.642
101.469
95.7581
96.8218
93.3019
84.6852
81.8064
76.7579
70.1218
197.932
206.303
195.02
176.066
156.573
138.006
123.687
107.924
105.315
99.6525
101.168
99.0305
91.6493
93.0395
86.3714
77.8807
79.0682
70.6728
66.1393
205.74
219.165
212.097
186.926
165.102
136.357
112.176
124.883
112.028
104.904
104.779
99.5951
97.345
99.7773
95.4789
92.122
87.712
79.8928
69.1383
210.506
222.529
215.092
193.557
166.954
143.184
129.907
116.101
105.537
100.698
104.768
100.938
96.1157
98.7164
89.3501
88.8316
81.866
71.8195
68.9512
203.064
229.774
217.271
185.837
162.466
147.079
130.443
121.788
113.276
109.592
106.717
99.7817
96.7041
93.1959
91.5262
92.0448
90.2912
81.7609
72.7278
212.442
228.118
221.069
200.742
176.865
151.409
132.767
114.501
110.469
106.543
100.401
102.424
96.9506
91.4573
93.472
92.4367
83.783
78.9042
71.6459
221.911
214.01
220.905
202.223
172.404
148.385
129.954
125.201
118.042
110.203
105.126
104.805
97.7171
92.2017
95.4516
90.9923
84.4645
79.5961
78.3052
210.078
231.239
218.477
194.822
172.337
152.63
136.775
123.298
114.554
109.413
108.457
102.204
93.9094
93.3637
94.8726
84.917
85.079
84.7408
70.1247
223.392
236.189
230.3
201.832
182.826
146.006
128.754
116.571
110.913
111.238
108.07
99.9572
96.1041
93.9738
91.6629
85.6538
77.967
77.5618
80.5632
241.432
230.98
210.119
188.409
166.3
148.47
138.213
123.318
104.783
110.767
109.706
99.9578
96.733
92.1034
90.1618
82.1706
82.1925
78.9518
70.0051
219.795
241.417
236.605
197.347
172.544
129.617
119.166
109.565
110.503
111.329
109.617
98.8636
93.9484
93.0452
88.5994
78.901
79.3074
74.9944
75.9534
177.695
195.818
189.916
174.024
153.12
135.593
127.164
116.898
110.12
108.406
102.2
99.1425
101.214
90.9256
83.8899
83.4263
79.4989
73.4403
68.5139
191.312
220.269
174.948
168.621
174.786
131.811
114.119
113.093
105.826
102.914
101.024
95.9439
96.7145
91.7347
85.1239
80.057
82.035
74.2563
71.979
164.995
183.28
167.466
153.226
136.68
127.32
116.317
114.636
103.283
98.6582
99.1676
100.269
96.933
87.8231
83.5592
84.3522
78.7294
67.4279
68.4645
203.388
213.78
203.239
175.116
131.805
118.898
112.256
106.722
105.303
98.8059
96.7059
93.8588
96.2148
89.8166
83.0332
79.832
82.0349
71.842
69.9394
150.937
162.861
150.517
138.969
122.65
112.165
102.219
102.821
98.5741
98.6336
99.0113
99.5176
93.2461
85.6119
85.032
84.3386
77.5629
66.6631
67.1774
179.388
205.679
192.28
181.555
120.761
110.457
106.247
102.711
102.382
98.9567
99.0928
96.2424
97.5785
94.3358
84.4534
82.767
83.1357
73.2312
66.9074
151.354
161.022
148.774
132.414
115.002
106.057
97.4317
94.4242
94.4054
95.6613
94.5223
95.5056
93.4877
85.3203
85.6192
86.2963
76.812
67.8915
67.2173
159.782
214.38
158.978
148.161
123.398
114.017
108.289
107.724
99.365
101.749
99.5095
95.8471
97.0201
92.297
89.0233
85.8489
83.3314
74.616
68.1119
138.806
155.873
146.336
133.725
117.558
101.67
99.0311
99.4296
92.7401
93.5988
94.7417
92.8256
94.8242
85.5623
80.7382
87.5544
76.9688
69.9264
69.2242
172.838
188.992
174.531
147.036
131.429
120.371
116.995
109.425
105.229
103.725
99.8866
99.5596
98.8562
95.5441
91.0823
89.485
85.5581
78.637
73.3169
145.964
160.721
155.7
144.402
116.371
113.02
106.198
101.447
98.9779
98.1884
93.8759
93.4296
95.51
90.8024
87.9024
88.2145
80.8071
73.2224
69.0213
159.247
193.311
168.5
165.262
144.344
129.601
121.91
117.981
113.851
110.41
109.35
103.148
100.478
99.6644
91.8721
94.9473
90.3141
82.6952
77.0615
156.374
168.421
163.591
155.002
135.812
118.357
113.613
104.886
104.961
105.517
102.627
98.7227
95.5575
92.6357
91.8376
92.3511
82.2464
75.4088
75.8869
172.302
181.576
184.549
163.8
147.748
137.851
131.788
126.694
118.736
117.98
116.194
110.029
109.437
103.847
96.0739
99.6656
97.5354
85.5995
81.4904
170.425
186.716
186.841
172.107
143.278
136.062
124.161
118.593
112.787
112.518
107.362
104.684
106.615
96.5141
92.4922
96.31
87.7596
78.7653
79.6984
185.735
189.075
194.289
174.843
167.147
150.321
144.986
139.924
128.326
130.205
125.47
118.309
118.254
111.922
101.968
103.352
102.287
96.0718
86.2696
174.5
195.669
198.891
182.667
161.661
149.909
145.893
133.282
123.502
123.463
118.771
116.08
114.193
102.115
97.3427
100.479
94.8676
84.0021
82.0766
200.854
206.682
211.127
196.179
187.299
170.164
160.526
153.584
141.697
143.918
136.785
125.379
125.064
122.85
108.732
106.666
110.231
102.29
92.8048
198.933
214.579
219.922
205.613
181.337
169.454
158.467
146.525
138.957
138.473
129.787
124.171
126.092
112.257
102.095
104.903
99.7977
84.978
83.1103
149.879
211.166
187.491
226.808
204.189
182.672
175.924
169.589
154.105
154.964
150.337
139.017
137.774
129.891
116.009
110.992
112.945
106.853
95.6666
207.207
224.436
229.183
230.501
204.015
185.654
179.777
167.561
153.845
154.12
146.673
131.626
134.698
126.097
107.637
107.554
104.879
91.8278
89.358
126.679
126.636
126.726
126.95
127.432
128.42
130.3
133.51
142.517
120.63
120.73
120.871
121.192
121.889
123.391
126.692
134.132
151.612
115.942
115.903
115.996
116.228
116.728
117.767
119.819
123.753
142.152
122.856
122.945
123.083
123.401
124.092
125.595
128.943
136.653
176.318
119.228
119.177
119.27
119.502
120.006
121.061
123.163
127.227
148.853
128.149
128.226
128.361
128.676
129.369
130.886
134.277
142.074
179.216
111.899
111.866
111.968
112.222
112.775
113.944
116.347
121.354
146.215
142.116
142.159
142.292
142.608
143.31
144.865
148.4
156.724
200.765
119.568
119.545
119.643
119.887
120.427
121.589
124.017
129.188
156.309
149.262
149.262
149.387
149.697
150.395
151.962
155.574
164.186
208.867
126.297
126.278
126.367
126.591
127.097
128.202
130.543
135.556
168.697
150.303
150.279
150.396
150.694
151.373
152.919
156.528
165.228
211.478
123.426
123.438
123.518
123.724
124.2
125.261
127.544
132.393
154.341
146.416