/*--------------------------------*- C++ -*----------------------------------*\
| =========                 |                                                 |
| \\      /  F ield         | foam-extend: Open Source CFD                    |
|  \\    /   O peration     | Version:     3.1                                |
|   \\  /    A nd           | Web:         http://www.extend-project.de       |
|    \\/     M anipulation  |                                                 |
\*---------------------------------------------------------------------------*/
FoamFile
{
    version     2.0;
    format      ascii;
    class       volVectorField;
    location    "0";
    object      DU;
}
// * * * * * * * * * * * * * * * * * * * * * * * * * * * * * * * * * * * * * //

dimensions      [0 1 0 0 0 0 0];

internalField   uniform (0 0 0);

boundaryField
{
    BOTTOM
    {
      
	//type		solidTractionFree ;
	type		slip;
	value		uniform (0 0 0);
    }
    
    WALL_OUTER
    {
      
	type		fixedValue;
	//value		uniform (0 0 0);
	value		nonuniform List<vector>
	
	2721
	(
( -3.256189e-08 0 -3.249986e-07) 
( -3.256189e-08 0 -3.249986e-07) 
( -3.256364e-08 0 -3.249999e-07) 
( -3.250656e-08 0 -3.249942e-07) 
( -3.254893e-08 0 -3.249982e-07) 
( -3.256189e-08 0 -3.249986e-07) 
( -3.254719e-08 0 -3.249968e-07) 
( -3.235450e-08 0 -3.249250e-07) 
( -3.351506e-08 0 -3.252913e-07) 
( -1.957404e-08 0 -3.413966e-07) 
( -1.957404e-08 0 -3.413966e-07) 
( -1.957404e-08 0 -3.413966e-07) 
( -1.957404e-08 0 -3.413966e-07) 
( -1.957404e-08 0 -3.413966e-07) 
( -1.957404e-08 0 -3.413966e-07) 
( -1.957404e-08 0 -3.413966e-07) 
( -1.957404e-08 0 -3.413966e-07) 
( -1.957404e-08 0 -3.413966e-07) 
( 1.645773e-09 0 -3.485434e-07) 
( 1.645773e-09 0 -3.485434e-07) 
( 1.645773e-09 0 -3.485434e-07) 
( 1.645773e-09 0 -3.485434e-07) 
( 1.645773e-09 0 -3.485434e-07) 
( 1.645773e-09 0 -3.485434e-07) 
( 1.645773e-09 0 -3.485434e-07) 
( 1.645773e-09 0 -3.485434e-07) 
( 1.645773e-09 0 -3.485434e-07) 
( 1.248630e-08 0 -3.470484e-07) 
( 1.248630e-08 0 -3.470484e-07) 
( 1.248630e-08 0 -3.470484e-07) 
( 1.248630e-08 0 -3.470484e-07) 
( 1.248630e-08 0 -3.470484e-07) 
( 1.248630e-08 0 -3.470484e-07) 
( 1.248630e-08 0 -3.470484e-07) 
( 1.248630e-08 0 -3.470484e-07) 
( 1.248630e-08 0 -3.470484e-07) 
( 5.557441e-08 0 -3.418593e-07) 
( 5.557600e-08 0 -3.418590e-07) 
( 5.557600e-08 0 -3.418590e-07) 
( 5.556986e-08 0 -3.418626e-07) 
( 5.557007e-08 0 -3.418650e-07) 
( 5.556669e-08 0 -3.418632e-07) 
( 5.557124e-08 0 -3.418599e-07) 
( 5.555318e-08 0 -3.418563e-07) 
( 5.562144e-08 0 -3.419174e-07) 
( 6.044895e-08 0 -3.442631e-07) 
( 6.044895e-08 0 -3.442631e-07) 
( 6.044895e-08 0 -3.442631e-07) 
( 6.044895e-08 0 -3.442631e-07) 
( 6.044895e-08 0 -3.442631e-07) 
( 6.044895e-08 0 -3.442631e-07) 
( 6.044895e-08 0 -3.442631e-07) 
( 6.044895e-08 0 -3.442631e-07) 
( 6.044895e-08 0 -3.442631e-07) 
( 7.438310e-08 0 -3.294738e-07) 
( 7.438310e-08 0 -3.294738e-07) 
( 7.438310e-08 0 -3.294738e-07) 
( 7.438310e-08 0 -3.294738e-07) 
( 7.438310e-08 0 -3.294738e-07) 
( 7.438310e-08 0 -3.294738e-07) 
( 7.438310e-08 0 -3.294738e-07) 
( 7.438310e-08 0 -3.294738e-07) 
( 7.438310e-08 0 -3.294738e-07) 
( 1.127812e-07 0 -3.092163e-07) 
( 1.128059e-07 0 -3.091979e-07) 
( 1.128059e-07 0 -3.091979e-07) 
( 1.128059e-07 0 -3.091979e-07) 
( 1.128059e-07 0 -3.091979e-07) 
( 1.128059e-07 0 -3.091979e-07) 
( 1.128059e-07 0 -3.091979e-07) 
( 1.123527e-07 0 -3.094511e-07) 
( 1.102123e-07 0 -3.105529e-07) 
( 1.036605e-07 0 -3.013672e-07) 
( 1.036605e-07 0 -3.013672e-07) 
( 1.036605e-07 0 -3.013672e-07) 
( 1.036605e-07 0 -3.013672e-07) 
( 1.036605e-07 0 -3.013672e-07) 
( 1.036605e-07 0 -3.013672e-07) 
( 1.036605e-07 0 -3.013672e-07) 
( 1.036605e-07 0 -3.013672e-07) 
( 1.036605e-07 0 -3.013672e-07) 
( 1.215287e-07 0 -2.867004e-07) 
( 1.215287e-07 0 -2.867004e-07) 
( 1.215287e-07 0 -2.867004e-07) 
( 1.215287e-07 0 -2.867004e-07) 
( 1.215287e-07 0 -2.867004e-07) 
( 1.215287e-07 0 -2.867004e-07) 
( 1.215287e-07 0 -2.867004e-07) 
( 1.215287e-07 0 -2.867004e-07) 
( 1.215287e-07 0 -2.867004e-07) 
( 1.446823e-07 0 -2.770941e-07) 
( 1.446823e-07 0 -2.770941e-07) 
( 1.446823e-07 0 -2.770941e-07) 
( 1.446823e-07 0 -2.770941e-07) 
( 1.446823e-07 0 -2.770941e-07) 
( 1.446823e-07 0 -2.770941e-07) 
( 1.446823e-07 0 -2.770941e-07) 
( 1.446823e-07 0 -2.770941e-07) 
( 1.446823e-07 0 -2.770941e-07) 
( 1.738438e-07 0 -2.762812e-07) 
( 1.738438e-07 0 -2.762812e-07) 
( 1.738438e-07 0 -2.762812e-07) 
( 1.738438e-07 0 -2.762812e-07) 
( 1.738438e-07 0 -2.762812e-07) 
( 1.738438e-07 0 -2.762812e-07) 
( 1.738438e-07 0 -2.762812e-07) 
( 1.738438e-07 0 -2.762812e-07) 
( 1.738438e-07 0 -2.762812e-07) 
( 2.625518e-07 0 -2.823827e-07) 
( 2.625497e-07 0 -2.823785e-07) 
( 2.625497e-07 0 -2.823785e-07) 
( 2.625497e-07 0 -2.823785e-07) 
( 2.625497e-07 0 -2.823785e-07) 
( 2.625497e-07 0 -2.823785e-07) 
( 2.625476e-07 0 -2.823742e-07) 
( 2.625339e-07 0 -2.823555e-07) 
( 2.612994e-07 0 -2.825979e-07) 
( 3.488880e-07 0 -3.199086e-07) 
( 3.488880e-07 0 -3.199086e-07) 
( 3.488880e-07 0 -3.199086e-07) 
( 3.488880e-07 0 -3.199086e-07) 
( 3.488880e-07 0 -3.199086e-07) 
( 3.488880e-07 0 -3.199086e-07) 
( 3.488880e-07 0 -3.199086e-07) 
( 3.488880e-07 0 -3.199086e-07) 
( 3.488880e-07 0 -3.199086e-07) 
( 5.102248e-07 0 -3.502444e-07) 
( 5.102248e-07 0 -3.502444e-07) 
( 5.102248e-07 0 -3.502444e-07) 
( 5.102248e-07 0 -3.502444e-07) 
( 5.102248e-07 0 -3.502444e-07) 
( 5.102248e-07 0 -3.502444e-07) 
( 5.102248e-07 0 -3.502444e-07) 
( 5.102248e-07 0 -3.502444e-07) 
( 5.102248e-07 0 -3.502444e-07) 
( 6.558907e-07 0 -3.482622e-07) 
( 6.558800e-07 0 -3.482652e-07) 
( 6.558800e-07 0 -3.482652e-07) 
( 6.558800e-07 0 -3.482652e-07) 
( 6.559108e-07 0 -3.482470e-07) 
( 6.559108e-07 0 -3.482470e-07) 
( 6.559723e-07 0 -3.482105e-07) 
( 6.561360e-07 0 -3.481119e-07) 
( 6.574094e-07 0 -3.472951e-07) 
( 7.672699e-07 0 -2.686723e-07) 
( 7.672699e-07 0 -2.686723e-07) 
( 7.672699e-07 0 -2.686723e-07) 
( 7.672699e-07 0 -2.686723e-07) 
( 7.672699e-07 0 -2.686723e-07) 
( 7.672341e-07 0 -2.687504e-07) 
( 7.671624e-07 0 -2.689067e-07) 
( 7.670008e-07 0 -2.692623e-07) 
( 7.692492e-07 0 -2.658121e-07) 
( 8.020038e-07 0 -2.184174e-07) 
( 8.020038e-07 0 -2.184174e-07) 
( 8.020038e-07 0 -2.184174e-07) 
( 8.020038e-07 0 -2.184174e-07) 
( 8.020038e-07 0 -2.184174e-07) 
( 8.020038e-07 0 -2.184174e-07) 
( 8.020038e-07 0 -2.184174e-07) 
( 8.020038e-07 0 -2.184174e-07) 
( 8.020038e-07 0 -2.184174e-07) 
( 7.708927e-07 0 -2.896228e-08) 
( 7.708858e-07 0 -2.893648e-08) 
( 7.708858e-07 0 -2.893648e-08) 
( 7.708858e-07 0 -2.893648e-08) 
( 7.708858e-07 0 -2.893648e-08) 
( 7.708792e-07 0 -2.891327e-08) 
( 7.708726e-07 0 -2.889006e-08) 
( 7.708471e-07 0 -2.880241e-08) 
( 7.704661e-07 0 -2.752683e-08) 
( -5.351029e-08 0 -3.099648e-07) 
( -5.350128e-08 0 -3.099696e-07) 
( -5.349226e-08 0 -3.099744e-07) 
( -5.360487e-08 0 -3.099119e-07) 
( -5.359364e-08 0 -3.099192e-07) 
( -5.356999e-08 0 -3.099325e-07) 
( -5.360265e-08 0 -3.099145e-07) 
( -5.399574e-08 0 -3.096997e-07) 
( -4.983968e-08 0 -3.117966e-07) 
( -5.708103e-08 0 -2.972804e-07) 
( -5.707088e-08 0 -2.973056e-07) 
( -5.707088e-08 0 -2.973056e-07) 
( -5.708943e-08 0 -2.972617e-07) 
( -5.714017e-08 0 -2.971356e-07) 
( -5.716046e-08 0 -2.970851e-07) 
( -5.714856e-08 0 -2.971169e-07) 
( -5.693125e-08 0 -2.976877e-07) 
( -5.632728e-08 0 -3.004970e-07) 
( -5.478391e-08 0 -2.866622e-07) 
( -5.478391e-08 0 -2.866622e-07) 
( -5.477871e-08 0 -2.866617e-07) 
( -5.491779e-08 0 -2.866465e-07) 
( -5.505168e-08 0 -2.866308e-07) 
( -5.505168e-08 0 -2.866308e-07) 
( -5.501432e-08 0 -2.866344e-07) 
( -5.408748e-08 0 -2.867450e-07) 
( -5.889498e-08 0 -2.861596e-07) 
( -9.537158e-08 0 -2.704046e-07) 
( -9.537158e-08 0 -2.704046e-07) 
( -9.527484e-08 0 -2.704462e-07) 
( -9.485649e-08 0 -2.706260e-07) 
( -9.476012e-08 0 -2.706674e-07) 
( -9.476012e-08 0 -2.706674e-07) 
( -9.463125e-08 0 -2.707228e-07) 
( -9.480849e-08 0 -2.706466e-07) 
( -8.608284e-08 0 -2.744033e-07) 
( -1.147274e-07 0 -2.598082e-07) 
( -1.147274e-07 0 -2.598082e-07) 
( -1.147274e-07 0 -2.598082e-07) 
( -1.147209e-07 0 -2.598117e-07) 
( -1.147209e-07 0 -2.598117e-07) 
( -1.147209e-07 0 -2.598117e-07) 
( -1.147209e-07 0 -2.598117e-07) 
( -1.147112e-07 0 -2.598162e-07) 
( -1.145933e-07 0 -2.595744e-07) 
( -1.036078e-07 0 -2.576739e-07) 
( -1.035949e-07 0 -2.576880e-07) 
( -1.035949e-07 0 -2.576880e-07) 
( -1.036340e-07 0 -2.576485e-07) 
( -1.036427e-07 0 -2.576401e-07) 
( -1.036427e-07 0 -2.576401e-07) 
( -1.036340e-07 0 -2.576485e-07) 
( -1.037032e-07 0 -2.575751e-07) 
( -1.015635e-07 0 -2.599579e-07) 
( -1.530634e-07 0 -2.321417e-07) 
( -1.530634e-07 0 -2.321417e-07) 
( -1.530634e-07 0 -2.321417e-07) 
( -1.530634e-07 0 -2.321417e-07) 
( -1.530634e-07 0 -2.321417e-07) 
( -1.530634e-07 0 -2.321417e-07) 
( -1.530553e-07 0 -2.321432e-07) 
( -1.530724e-07 0 -2.321184e-07) 
( -1.532378e-07 0 -2.318026e-07) 
( -1.295969e-07 0 -2.499101e-07) 
( -1.296118e-07 0 -2.499008e-07) 
( -1.296118e-07 0 -2.499008e-07) 
( -1.296118e-07 0 -2.499008e-07) 
( -1.296118e-07 0 -2.499008e-07) 
( -1.296118e-07 0 -2.499008e-07) 
( -1.296019e-07 0 -2.499088e-07) 
( -1.297264e-07 0 -2.498117e-07) 
( -1.263047e-07 0 -2.518298e-07) 
( -1.356712e-07 0 -2.586086e-07) 
( -1.356712e-07 0 -2.586086e-07) 
( -1.356712e-07 0 -2.586086e-07) 
( -1.356712e-07 0 -2.586086e-07) 
( -1.356712e-07 0 -2.586086e-07) 
( -1.356712e-07 0 -2.586086e-07) 
( -1.355965e-07 0 -2.586476e-07) 
( -1.369602e-07 0 -2.579779e-07) 
( -1.356420e-07 0 -2.591686e-07) 
( -1.750869e-07 0 -2.669511e-07) 
( -1.750928e-07 0 -2.669485e-07) 
( -1.750928e-07 0 -2.669485e-07) 
( -1.750928e-07 0 -2.669485e-07) 
( -1.750928e-07 0 -2.669485e-07) 
( -1.750928e-07 0 -2.669485e-07) 
( -1.750987e-07 0 -2.669460e-07) 
( -1.754062e-07 0 -2.666467e-07) 
( -1.733964e-07 0 -2.684205e-07) 
( -1.930057e-07 0 -2.881924e-07) 
( -1.930057e-07 0 -2.881924e-07) 
( -1.930057e-07 0 -2.881924e-07) 
( -1.930057e-07 0 -2.881924e-07) 
( -1.930057e-07 0 -2.881924e-07) 
( -1.930057e-07 0 -2.881924e-07) 
( -1.928687e-07 0 -2.882398e-07) 
( -1.914065e-07 0 -2.887116e-07) 
( -1.882973e-07 0 -2.896832e-07) 
( -2.556125e-07 0 -3.056732e-07) 
( -2.556125e-07 0 -3.056732e-07) 
( -2.556125e-07 0 -3.056732e-07) 
( -2.556125e-07 0 -3.056732e-07) 
( -2.556125e-07 0 -3.056732e-07) 
( -2.556125e-07 0 -3.056732e-07) 
( -2.556125e-07 0 -3.056732e-07) 
( -2.556125e-07 0 -3.056732e-07) 
( -2.556125e-07 0 -3.056732e-07) 
( -3.262012e-07 0 -2.958150e-07) 
( -3.262012e-07 0 -2.958150e-07) 
( -3.262012e-07 0 -2.958150e-07) 
( -3.262012e-07 0 -2.958150e-07) 
( -3.262012e-07 0 -2.958150e-07) 
( -3.262012e-07 0 -2.958150e-07) 
( -3.262012e-07 0 -2.958150e-07) 
( -3.262012e-07 0 -2.958150e-07) 
( -3.262012e-07 0 -2.958150e-07) 
( -3.685664e-07 0 -2.606182e-07) 
( -3.685664e-07 0 -2.606182e-07) 
( -3.685664e-07 0 -2.606182e-07) 
( -3.685664e-07 0 -2.606182e-07) 
( -3.685664e-07 0 -2.606182e-07) 
( -3.685664e-07 0 -2.606182e-07) 
( -3.685468e-07 0 -2.606436e-07) 
( -3.685082e-07 0 -2.606923e-07) 
( -3.672784e-07 0 -2.622323e-07) 
( -3.930818e-07 0 -2.066579e-07) 
( -3.930706e-07 0 -2.066769e-07) 
( -3.930706e-07 0 -2.066769e-07) 
( -3.930706e-07 0 -2.066769e-07) 
( -3.930706e-07 0 -2.066769e-07) 
( -3.930706e-07 0 -2.066769e-07) 
( -3.930539e-07 0 -2.067032e-07) 
( -3.930373e-07 0 -2.067295e-07) 
( -3.922346e-07 0 -2.080385e-07) 
( -4.150852e-07 0 -1.336508e-07) 
( -4.150860e-07 0 -1.336434e-07) 
( -4.150860e-07 0 -1.336434e-07) 
( -4.150860e-07 0 -1.336434e-07) 
( -4.150860e-07 0 -1.336434e-07) 
( -4.150897e-07 0 -1.336191e-07) 
( -4.150897e-07 0 -1.336191e-07) 
( -4.150970e-07 0 -1.335704e-07) 
( -4.152205e-07 0 -1.327076e-07) 
( -4.277007e-07 0 -1.133684e-07) 
( -4.277007e-07 0 -1.133684e-07) 
( -4.277007e-07 0 -1.133684e-07) 
( -4.277007e-07 0 -1.133684e-07) 
( -4.277007e-07 0 -1.133684e-07) 
( -4.277007e-07 0 -1.133684e-07) 
( -4.277007e-07 0 -1.133684e-07) 
( -4.277007e-07 0 -1.133684e-07) 
( -4.277007e-07 0 -1.133684e-07) 
( -4.325101e-07 0 -6.691898e-08) 
( -4.325126e-07 0 -6.692573e-08) 
( -4.325126e-07 0 -6.692573e-08) 
( -4.325126e-07 0 -6.692573e-08) 
( -4.325126e-07 0 -6.692573e-08) 
( -4.325246e-07 0 -6.691320e-08) 
( -4.325233e-07 0 -6.690983e-08) 
( -4.325473e-07 0 -6.688479e-08) 
( -4.329504e-07 0 -6.649523e-08) 
( -4.348566e-07 0 -6.154316e-09) 
( -4.348566e-07 0 -6.154316e-09) 
( -4.348566e-07 0 -6.154316e-09) 
( -4.348566e-07 0 -6.154316e-09) 
( -4.348566e-07 0 -6.154316e-09) 
( -4.348566e-07 0 -6.154316e-09) 
( -4.348566e-07 0 -6.154316e-09) 
( -4.348566e-07 0 -6.154316e-09) 
( -4.348566e-07 0 -6.154316e-09) 
( -4.327422e-07 0 1.989538e-08) 
( -4.327422e-07 0 1.989538e-08) 
( -4.327422e-07 0 1.989538e-08) 
( -4.327422e-07 0 1.989538e-08) 
( -4.327422e-07 0 1.989538e-08) 
( -4.327422e-07 0 1.989538e-08) 
( -4.327422e-07 0 1.989538e-08) 
( -4.327422e-07 0 1.989538e-08) 
( -4.327422e-07 0 1.989538e-08) 
( -4.349497e-07 0 4.246779e-08) 
( -4.349497e-07 0 4.246779e-08) 
( -4.349497e-07 0 4.246779e-08) 
( -4.349497e-07 0 4.246779e-08) 
( -4.349497e-07 0 4.246779e-08) 
( -4.349497e-07 0 4.246779e-08) 
( -4.349497e-07 0 4.246779e-08) 
( -4.349497e-07 0 4.246779e-08) 
( -4.417864e-07 0 5.603228e-08) 
( -4.389709e-07 0 8.205415e-08) 
( -4.389603e-07 0 8.206388e-08) 
( -4.389603e-07 0 8.206388e-08) 
( -4.389603e-07 0 8.206388e-08) 
( -4.389603e-07 0 8.206388e-08) 
( -4.389603e-07 0 8.206388e-08) 
( -4.389551e-07 0 8.206874e-08) 
( -4.389498e-07 0 8.207361e-08) 
( -4.382410e-07 0 7.473431e-08) 
( -4.263460e-07 0 8.831502e-08) 
( -4.263460e-07 0 8.831502e-08) 
( -4.263460e-07 0 8.831502e-08) 
( -4.263460e-07 0 8.831502e-08) 
( -4.263460e-07 0 8.831502e-08) 
( -4.263460e-07 0 8.831502e-08) 
( -4.263460e-07 0 8.831502e-08) 
( -4.263460e-07 0 8.831502e-08) 
( -4.070143e-07 0 1.017870e-07) 
( -3.804853e-07 0 1.371515e-07) 
( -3.804794e-07 0 1.371595e-07) 
( -3.804794e-07 0 1.371595e-07) 
( -3.804794e-07 0 1.371595e-07) 
( -3.804794e-07 0 1.371595e-07) 
( -3.804794e-07 0 1.371595e-07) 
( -3.804621e-07 0 1.371846e-07) 
( -3.804448e-07 0 1.372097e-07) 
( -3.699085e-07 0 1.432273e-07) 
( -3.456928e-07 0 1.678474e-07) 
( -3.457128e-07 0 1.678087e-07) 
( -3.457128e-07 0 1.678087e-07) 
( -3.457128e-07 0 1.678087e-07) 
( -3.457128e-07 0 1.678087e-07) 
( -3.457128e-07 0 1.678087e-07) 
( -3.457329e-07 0 1.677700e-07) 
( -3.458211e-07 0 1.676057e-07) 
( -3.196791e-07 0 1.915654e-07) 
( -2.880971e-07 0 2.011694e-07) 
( -2.880971e-07 0 2.011694e-07) 
( -2.880971e-07 0 2.011694e-07) 
( -2.880979e-07 0 2.011702e-07) 
( -2.880979e-07 0 2.011702e-07) 
( -2.880979e-07 0 2.011702e-07) 
( -2.881058e-07 0 2.011715e-07) 
( -2.881138e-07 0 2.011727e-07) 
( -2.467214e-07 0 2.044561e-07) 
( -2.055560e-07 0 2.019342e-07) 
( -2.055560e-07 0 2.019342e-07) 
( -2.055560e-07 0 2.019342e-07) 
( -2.055560e-07 0 2.019342e-07) 
( -2.055560e-07 0 2.019342e-07) 
( -2.055712e-07 0 2.019179e-07) 
( -2.055906e-07 0 2.019028e-07) 
( -2.056598e-07 0 2.018401e-07) 
( -1.648184e-07 0 2.114112e-07) 
( -1.323915e-07 0 2.158610e-07) 
( -1.323827e-07 0 2.158631e-07) 
( -1.323827e-07 0 2.158631e-07) 
( -1.323827e-07 0 2.158631e-07) 
( -1.323827e-07 0 2.158631e-07) 
( -1.323695e-07 0 2.158655e-07) 
( -1.323518e-07 0 2.158696e-07) 
( -1.324414e-07 0 2.158319e-07) 
( -1.260605e-07 0 2.243950e-07) 
( -1.062393e-07 0 2.313127e-07) 
( -1.062448e-07 0 2.313120e-07) 
( -1.062448e-07 0 2.313120e-07) 
( -1.062448e-07 0 2.313120e-07) 
( -1.062448e-07 0 2.313120e-07) 
( -1.062448e-07 0 2.313120e-07) 
( -1.062116e-07 0 2.313167e-07) 
( -1.059886e-07 0 2.313457e-07) 
( -1.142737e-07 0 2.372688e-07) 
( -1.037422e-07 0 2.508808e-07) 
( -1.037380e-07 0 2.508730e-07) 
( -1.037380e-07 0 2.508730e-07) 
( -1.037380e-07 0 2.508730e-07) 
( -1.037380e-07 0 2.508730e-07) 
( -1.037391e-07 0 2.508749e-07) 
( -1.037454e-07 0 2.508731e-07) 
( -1.038807e-07 0 2.510494e-07) 
( -1.043731e-07 0 2.689769e-07) 
( -1.112522e-07 0 2.747707e-07) 
( -1.112522e-07 0 2.747707e-07) 
( -1.112522e-07 0 2.747707e-07) 
( -1.112522e-07 0 2.747707e-07) 
( -1.112522e-07 0 2.747707e-07) 
( -1.112522e-07 0 2.747707e-07) 
( -1.112969e-07 0 2.747153e-07) 
( -1.112097e-07 0 2.745428e-07) 
( -9.476639e-08 0 3.060340e-07) 
( -1.059225e-07 0 3.148027e-07) 
( -1.057699e-07 0 3.148808e-07) 
( -1.073380e-07 0 3.140567e-07) 
( -1.074143e-07 0 3.140177e-07) 
( -1.074143e-07 0 3.140177e-07) 
( -1.074143e-07 0 3.140177e-07) 
( -1.080946e-07 0 3.136535e-07) 
( -1.145817e-07 0 3.104446e-07) 
( -1.315472e-07 0 3.195002e-07) 
( -1.218754e-07 0 3.422489e-07) 
( -1.218754e-07 0 3.422489e-07) 
( -1.217311e-07 0 3.423582e-07) 
( -1.217311e-07 0 3.423582e-07) 
( -1.217311e-07 0 3.423582e-07) 
( -1.217151e-07 0 3.423725e-07) 
( -1.216668e-07 0 3.424025e-07) 
( -1.210568e-07 0 3.428294e-07) 
( -1.510758e-07 0 3.385563e-07) 
( -1.429067e-07 0 3.609752e-07) 
( -1.428665e-07 0 3.609935e-07) 
( -1.429067e-07 0 3.609752e-07) 
( -1.429067e-07 0 3.609752e-07) 
( -1.184232e-07 0 3.826834e-07) 
( -1.177575e-07 0 3.829961e-07) 
( -1.201963e-07 0 3.818001e-07) 
( -1.447530e-07 0 3.600027e-07) 
( -1.291500e-07 0 3.879441e-07) 
( -1.478503e-07 0 3.928454e-07) 
( -1.478520e-07 0 3.928499e-07) 
( -1.478354e-07 0 3.929170e-07) 
( -1.478371e-07 0 3.929215e-07) 
( -1.481395e-07 0 3.923267e-07) 
( -1.482496e-07 0 3.920895e-07) 
( -1.482496e-07 0 3.920895e-07) 
( -1.597031e-07 0 3.932901e-07) 
( -1.571726e-07 0 3.988439e-07) 
( -1.458191e-07 0 4.262123e-07) 
( -1.457758e-07 0 4.262407e-07) 
( -1.453075e-07 0 4.265216e-07) 
( -1.451879e-07 0 4.265948e-07) 
( -1.446000e-07 0 4.269490e-07) 
( -1.445237e-07 0 4.269938e-07) 
( -1.448290e-07 0 4.268144e-07) 
( -1.537537e-07 0 4.194568e-07) 
( -1.624936e-07 0 4.379213e-07) 
( -1.621262e-07 0 4.416994e-07) 
( -1.621262e-07 0 4.416994e-07) 
( -1.621262e-07 0 4.416994e-07) 
( -1.621408e-07 0 4.416845e-07) 
( -1.622641e-07 0 4.415450e-07) 
( -1.629949e-07 0 4.410648e-07) 
( -1.628745e-07 0 4.411437e-07) 
( -1.622057e-07 0 4.416048e-07) 
( -1.375085e-07 0 4.543716e-07) 
( -1.302844e-07 0 4.606468e-07) 
( -1.302844e-07 0 4.606468e-07) 
( -1.302844e-07 0 4.606468e-07) 
( -1.302844e-07 0 4.606468e-07) 
( -1.304086e-07 0 4.605847e-07) 
( -1.304086e-07 0 4.605847e-07) 
( -1.303672e-07 0 4.606054e-07) 
( -1.302209e-07 0 4.606845e-07) 
( -1.015066e-07 0 4.667983e-07) 
( 7.619468e-07 0 3.239724e-08) 
( 7.619468e-07 0 3.239724e-08) 
( 7.619468e-07 0 3.239724e-08) 
( 7.619468e-07 0 3.239724e-08) 
( 7.619468e-07 0 3.239724e-08) 
( 7.619468e-07 0 3.239724e-08) 
( 7.619468e-07 0 3.239724e-08) 
( 7.619468e-07 0 3.239724e-08) 
( 7.619468e-07 0 3.239724e-08) 
( 7.786547e-07 0 1.306562e-07) 
( 7.786542e-07 0 1.306774e-07) 
( 7.786542e-07 0 1.306774e-07) 
( 7.786542e-07 0 1.306774e-07) 
( 7.786434e-07 0 1.307640e-07) 
( 7.786428e-07 0 1.307852e-07) 
( 7.786315e-07 0 1.308929e-07) 
( 7.785759e-07 0 1.313892e-07) 
( 7.829876e-07 0 1.376268e-07) 
( 8.246560e-07 0 1.711230e-07) 
( 8.246560e-07 0 1.711230e-07) 
( 8.246560e-07 0 1.711230e-07) 
( 8.246560e-07 0 1.711230e-07) 
( 8.246560e-07 0 1.711230e-07) 
( 8.246560e-07 0 1.711230e-07) 
( 8.246560e-07 0 1.711230e-07) 
( 8.246560e-07 0 1.711230e-07) 
( 8.031358e-07 0 2.025094e-07) 
( 8.064627e-07 0 3.479561e-07) 
( 8.064639e-07 0 3.479823e-07) 
( 8.064639e-07 0 3.479823e-07) 
( 8.064639e-07 0 3.479823e-07) 
( 8.064651e-07 0 3.480084e-07) 
( 8.064663e-07 0 3.480346e-07) 
( 8.064728e-07 0 3.481220e-07) 
( 8.064921e-07 0 3.483844e-07) 
( 7.747458e-07 0 3.233477e-07) 
( 7.084030e-07 0 3.752220e-07) 
( 7.084030e-07 0 3.752220e-07) 
( 7.084030e-07 0 3.752220e-07) 
( 7.084030e-07 0 3.752220e-07) 
( 7.084030e-07 0 3.752220e-07) 
( 7.084030e-07 0 3.752220e-07) 
( 7.084030e-07 0 3.752220e-07) 
( 7.084030e-07 0 3.752220e-07) 
( 6.721098e-07 0 3.751271e-07) 
( 5.346158e-07 0 3.874123e-07) 
( 5.346158e-07 0 3.874123e-07) 
( 5.346158e-07 0 3.874123e-07) 
( 5.346158e-07 0 3.874123e-07) 
( 5.346158e-07 0 3.874123e-07) 
( 5.346158e-07 0 3.874123e-07) 
( 5.346158e-07 0 3.874123e-07) 
( 5.346158e-07 0 3.874123e-07) 
( 5.315398e-07 0 3.805704e-07) 
( 3.880085e-07 0 3.485897e-07) 
( 3.880085e-07 0 3.485897e-07) 
( 3.880085e-07 0 3.485897e-07) 
( 3.880085e-07 0 3.485897e-07) 
( 3.879498e-07 0 3.486160e-07) 
( 3.878900e-07 0 3.486381e-07) 
( 3.878301e-07 0 3.486602e-07) 
( 3.874745e-07 0 3.488055e-07) 
( 3.949949e-07 0 3.523047e-07) 
( 2.695922e-07 0 3.296479e-07) 
( 2.695856e-07 0 3.296466e-07) 
( 2.695856e-07 0 3.296466e-07) 
( 2.695793e-07 0 3.296421e-07) 
( 2.695793e-07 0 3.296421e-07) 
( 2.695793e-07 0 3.296421e-07) 
( 2.695731e-07 0 3.296376e-07) 
( 2.695547e-07 0 3.296210e-07) 
( 2.801029e-07 0 3.322838e-07) 
( 2.208706e-07 0 2.959344e-07) 
( 2.208706e-07 0 2.959344e-07) 
( 2.208706e-07 0 2.959344e-07) 
( 2.208706e-07 0 2.959344e-07) 
( 2.208706e-07 0 2.959344e-07) 
( 2.208706e-07 0 2.959344e-07) 
( 2.208706e-07 0 2.959344e-07) 
( 2.208706e-07 0 2.959344e-07) 
( 2.217607e-07 0 3.078532e-07) 
( 1.597681e-07 0 3.005624e-07) 
( 1.597681e-07 0 3.005624e-07) 
( 1.597681e-07 0 3.005624e-07) 
( 1.597681e-07 0 3.005624e-07) 
( 1.597681e-07 0 3.005624e-07) 
( 1.597681e-07 0 3.005624e-07) 
( 1.597681e-07 0 3.005624e-07) 
( 1.597681e-07 0 3.005624e-07) 
( 1.691033e-07 0 3.012160e-07) 
( 1.370107e-07 0 2.973670e-07) 
( 1.370107e-07 0 2.973670e-07) 
( 1.370107e-07 0 2.973670e-07) 
( 1.370107e-07 0 2.973670e-07) 
( 1.370107e-07 0 2.973670e-07) 
( 1.370107e-07 0 2.973670e-07) 
( 1.370107e-07 0 2.973670e-07) 
( 1.370107e-07 0 2.973670e-07) 
( 1.306320e-07 0 3.016774e-07) 
( 9.934032e-08 0 3.105321e-07) 
( 9.936911e-08 0 3.105152e-07) 
( 9.936911e-08 0 3.105152e-07) 
( 9.936911e-08 0 3.105152e-07) 
( 9.936911e-08 0 3.105152e-07) 
( 9.915324e-08 0 3.106425e-07) 
( 9.913884e-08 0 3.106510e-07) 
( 9.881943e-08 0 3.108384e-07) 
( 9.900589e-08 0 3.105045e-07) 
( 9.088781e-08 0 3.197101e-07) 
( 9.088819e-08 0 3.197122e-07) 
( 9.088819e-08 0 3.197122e-07) 
( 9.088819e-08 0 3.197122e-07) 
( 9.087714e-08 0 3.197081e-07) 
( 9.084552e-08 0 3.197042e-07) 
( 9.084476e-08 0 3.197001e-07) 
( 9.076056e-08 0 3.196902e-07) 
( 9.011326e-08 0 3.236185e-07) 
( 6.952782e-08 0 3.504114e-07) 
( 6.952782e-08 0 3.504114e-07) 
( 6.952782e-08 0 3.504114e-07) 
( 6.952782e-08 0 3.504114e-07) 
( 6.952782e-08 0 3.504114e-07) 
( 6.952782e-08 0 3.504114e-07) 
( 6.952782e-08 0 3.504114e-07) 
( 6.952782e-08 0 3.504114e-07) 
( 6.922476e-08 0 3.482583e-07) 
( 8.032075e-08 0 3.707532e-07) 
( 8.032075e-08 0 3.707532e-07) 
( 8.032075e-08 0 3.707532e-07) 
( 8.032075e-08 0 3.707532e-07) 
( 8.032075e-08 0 3.707532e-07) 
( 8.032075e-08 0 3.707532e-07) 
( 8.032075e-08 0 3.707532e-07) 
( 8.032075e-08 0 3.707532e-07) 
( 7.492927e-08 0 3.738196e-07) 
( 2.306622e-08 0 4.041315e-07) 
( 2.306780e-08 0 4.041296e-07) 
( 2.306780e-08 0 4.041296e-07) 
( 2.306247e-08 0 4.041247e-07) 
( 2.306286e-08 0 4.041013e-07) 
( 2.304864e-08 0 4.041186e-07) 
( 2.304646e-08 0 4.041098e-07) 
( 2.300616e-08 0 4.041131e-07) 
( 2.719139e-08 0 4.051934e-07) 
( 6.296093e-09 0 4.323926e-07) 
( 6.296093e-09 0 4.323926e-07) 
( 6.296093e-09 0 4.323926e-07) 
( 6.296093e-09 0 4.323926e-07) 
( 6.296093e-09 0 4.323926e-07) 
( 6.296093e-09 0 4.323926e-07) 
( 6.296093e-09 0 4.323926e-07) 
( 6.296093e-09 0 4.323926e-07) 
( 6.359180e-09 0 4.301636e-07) 
( -1.485407e-08 0 4.475292e-07) 
( -1.485504e-08 0 4.475286e-07) 
( -1.485504e-08 0 4.475286e-07) 
( -1.485504e-08 0 4.475286e-07) 
( -1.482593e-08 0 4.475283e-07) 
( -1.479296e-08 0 4.475301e-07) 
( -1.470564e-08 0 4.475292e-07) 
( -1.462110e-08 0 4.465606e-07) 
( -2.362459e-08 0 4.461029e-07) 
( -1.188655e-07 0 4.639163e-07) 
( -1.188655e-07 0 4.639163e-07) 
( -1.188655e-07 0 4.639163e-07) 
( -1.188655e-07 0 4.639163e-07) 
( -1.188655e-07 0 4.639163e-07) 
( -1.188655e-07 0 4.639163e-07) 
( -1.188655e-07 0 4.639163e-07) 
( -1.188655e-07 0 4.639163e-07) 
( -1.140791e-07 0 4.601334e-07) 
( 1.446823e-07 0 -2.770941e-07) 
( 1.801310e-07 0 -2.650320e-07) 
( 1.801310e-07 0 -2.650320e-07) 
( 1.446823e-07 0 -2.770941e-07) 
( 1.801310e-07 0 -2.650320e-07) 
( 1.801310e-07 0 -2.650320e-07) 
( 1.446823e-07 0 -2.770941e-07) 
( 1.801310e-07 0 -2.650320e-07) 
( 1.801310e-07 0 -2.650320e-07) 
( 1.446823e-07 0 -2.770941e-07) 
( 1.801310e-07 0 -2.650320e-07) 
( 1.801310e-07 0 -2.650320e-07) 
( 1.446823e-07 0 -2.770941e-07) 
( 1.801310e-07 0 -2.650320e-07) 
( 1.801310e-07 0 -2.650320e-07) 
( 1.446823e-07 0 -2.770941e-07) 
( 1.801310e-07 0 -2.650320e-07) 
( 1.801310e-07 0 -2.650320e-07) 
( 1.446823e-07 0 -2.770941e-07) 
( 1.801310e-07 0 -2.650320e-07) 
( 1.801310e-07 0 -2.650320e-07) 
( 1.446823e-07 0 -2.770941e-07) 
( 1.801310e-07 0 -2.650320e-07) 
( 1.801310e-07 0 -2.650320e-07) 
( 1.510717e-07 0 -2.802122e-07) 
( 1.669016e-07 0 -2.774404e-07) 
( 1.801310e-07 0 -2.650320e-07) 
( 1.738438e-07 0 -2.762812e-07) 
( 2.192861e-07 0 -2.736073e-07) 
( 2.192861e-07 0 -2.736073e-07) 
( 1.738438e-07 0 -2.762812e-07) 
( 2.192861e-07 0 -2.736073e-07) 
( 2.192861e-07 0 -2.736073e-07) 
( 1.738438e-07 0 -2.762812e-07) 
( 2.192861e-07 0 -2.736073e-07) 
( 2.192861e-07 0 -2.736073e-07) 
( 1.738438e-07 0 -2.762812e-07) 
( 2.192861e-07 0 -2.736073e-07) 
( 2.192861e-07 0 -2.736073e-07) 
( 1.738438e-07 0 -2.762812e-07) 
( 2.192883e-07 0 -2.735975e-07) 
( 2.192883e-07 0 -2.735975e-07) 
( 1.738438e-07 0 -2.762812e-07) 
( 2.192883e-07 0 -2.735975e-07) 
( 2.192883e-07 0 -2.735975e-07) 
( 1.738438e-07 0 -2.762812e-07) 
( 2.192893e-07 0 -2.735824e-07) 
( 2.192871e-07 0 -2.735921e-07) 
( 1.738438e-07 0 -2.762812e-07) 
( 2.193028e-07 0 -2.735447e-07) 
( 2.192902e-07 0 -2.735672e-07) 
( 1.905454e-07 0 -2.757559e-07) 
( 2.258497e-07 0 -2.786380e-07) 
( 2.201604e-07 0 -2.727169e-07) 
( 2.625497e-07 0 -2.823785e-07) 
( 3.162607e-07 0 -2.926167e-07) 
( 3.162672e-07 0 -2.926177e-07) 
( 2.625497e-07 0 -2.823785e-07) 
( 3.162607e-07 0 -2.926167e-07) 
( 3.162607e-07 0 -2.926167e-07) 
( 2.625497e-07 0 -2.823785e-07) 
( 3.162607e-07 0 -2.926167e-07) 
( 3.162607e-07 0 -2.926167e-07) 
( 2.625497e-07 0 -2.823785e-07) 
( 3.162607e-07 0 -2.926167e-07) 
( 3.162607e-07 0 -2.926167e-07) 
( 2.625497e-07 0 -2.823785e-07) 
( 3.162482e-07 0 -2.926141e-07) 
( 3.162482e-07 0 -2.926141e-07) 
( 2.625476e-07 0 -2.823742e-07) 
( 3.162358e-07 0 -2.926116e-07) 
( 3.162482e-07 0 -2.926141e-07) 
( 2.625455e-07 0 -2.823700e-07) 
( 3.162234e-07 0 -2.926090e-07) 
( 3.162358e-07 0 -2.926116e-07) 
( 2.625234e-07 0 -2.823344e-07) 
( 3.161567e-07 0 -2.925939e-07) 
( 3.161927e-07 0 -2.926024e-07) 
( 2.715631e-07 0 -2.865359e-07) 
( 3.081354e-07 0 -3.077510e-07) 
( 3.158016e-07 0 -2.923026e-07) 
( 3.488880e-07 0 -3.199086e-07) 
( 4.342222e-07 0 -3.322451e-07) 
( 4.342222e-07 0 -3.322451e-07) 
( 3.488880e-07 0 -3.199086e-07) 
( 4.342222e-07 0 -3.322451e-07) 
( 4.342222e-07 0 -3.322451e-07) 
( 3.488880e-07 0 -3.199086e-07) 
( 4.342222e-07 0 -3.322451e-07) 
( 4.342222e-07 0 -3.322451e-07) 
( 3.488880e-07 0 -3.199086e-07) 
( 4.342222e-07 0 -3.322451e-07) 
( 4.342222e-07 0 -3.322451e-07) 
( 3.488880e-07 0 -3.199086e-07) 
( 4.341846e-07 0 -3.322622e-07) 
( 4.342071e-07 0 -3.322546e-07) 
( 3.488880e-07 0 -3.199086e-07) 
( 4.341622e-07 0 -3.322698e-07) 
( 4.341846e-07 0 -3.322622e-07) 
( 3.488880e-07 0 -3.199086e-07) 
( 4.341021e-07 0 -3.322945e-07) 
( 4.341622e-07 0 -3.322698e-07) 
( 3.488880e-07 0 -3.199086e-07) 
( 4.339588e-07 0 -3.323648e-07) 
( 4.340420e-07 0 -3.323192e-07) 
( 3.657325e-07 0 -3.258236e-07) 
( 4.418099e-07 0 -3.385755e-07) 
( 4.325946e-07 0 -3.328700e-07) 
( 5.102248e-07 0 -3.502444e-07) 
( 5.745929e-07 0 -3.675234e-07) 
( 5.746193e-07 0 -3.675283e-07) 
( 5.102248e-07 0 -3.502444e-07) 
( 5.745929e-07 0 -3.675234e-07) 
( 5.745929e-07 0 -3.675234e-07) 
( 5.102248e-07 0 -3.502444e-07) 
( 5.745929e-07 0 -3.675234e-07) 
( 5.745929e-07 0 -3.675234e-07) 
( 5.102248e-07 0 -3.502444e-07) 
( 5.745929e-07 0 -3.675234e-07) 
( 5.745929e-07 0 -3.675234e-07) 
( 5.102248e-07 0 -3.502444e-07) 
( 5.746082e-07 0 -3.675332e-07) 
( 5.745929e-07 0 -3.675234e-07) 
( 5.102248e-07 0 -3.502444e-07) 
( 5.746104e-07 0 -3.675405e-07) 
( 5.746104e-07 0 -3.675405e-07) 
( 5.102248e-07 0 -3.502444e-07) 
( 5.746324e-07 0 -3.675723e-07) 
( 5.746126e-07 0 -3.675479e-07) 
( 5.102248e-07 0 -3.502444e-07) 
( 5.747005e-07 0 -3.676334e-07) 
( 5.746499e-07 0 -3.675894e-07) 
( 5.101128e-07 0 -3.435544e-07) 
( 5.683395e-07 0 -3.502564e-07) 
( 5.749395e-07 0 -3.680171e-07) 
( 6.558800e-07 0 -3.482652e-07) 
( 7.207265e-07 0 -3.216794e-07) 
( 7.207265e-07 0 -3.216794e-07) 
( 6.558800e-07 0 -3.482652e-07) 
( 7.207088e-07 0 -3.217143e-07) 
( 7.207265e-07 0 -3.216794e-07) 
( 6.558800e-07 0 -3.482652e-07) 
( 7.207088e-07 0 -3.217143e-07) 
( 7.207088e-07 0 -3.217143e-07) 
( 6.558800e-07 0 -3.482652e-07) 
( 7.207088e-07 0 -3.217143e-07) 
( 7.207088e-07 0 -3.217143e-07) 
( 6.559108e-07 0 -3.482470e-07) 
( 7.207088e-07 0 -3.217143e-07) 
( 7.207088e-07 0 -3.217143e-07) 
( 6.559415e-07 0 -3.482287e-07) 
( 7.206553e-07 0 -3.218274e-07) 
( 7.206553e-07 0 -3.218274e-07) 
( 6.560338e-07 0 -3.481741e-07) 
( 7.205483e-07 0 -3.220534e-07) 
( 7.206018e-07 0 -3.219404e-07) 
( 6.563004e-07 0 -3.480178e-07) 
( 7.202262e-07 0 -3.227481e-07) 
( 7.204231e-07 0 -3.223226e-07) 
( 6.421582e-07 0 -3.352276e-07) 
( 7.077138e-07 0 -3.015903e-07) 
( 7.183150e-07 0 -3.268232e-07) 
( 7.672699e-07 0 -2.686723e-07) 
( 8.170793e-07 0 -1.965953e-07) 
( 8.170793e-07 0 -1.965953e-07) 
( 7.672699e-07 0 -2.686723e-07) 
( 8.170793e-07 0 -1.965953e-07) 
( 8.170793e-07 0 -1.965953e-07) 
( 7.672699e-07 0 -2.686723e-07) 
( 8.170793e-07 0 -1.965953e-07) 
( 8.170793e-07 0 -1.965953e-07) 
( 7.672699e-07 0 -2.686723e-07) 
( 8.170793e-07 0 -1.965953e-07) 
( 8.170793e-07 0 -1.965953e-07) 
( 7.672699e-07 0 -2.686723e-07) 
( 8.170793e-07 0 -1.965953e-07) 
( 8.170793e-07 0 -1.965953e-07) 
( 7.671982e-07 0 -2.688285e-07) 
( 8.170793e-07 0 -1.965953e-07) 
( 8.170793e-07 0 -1.965953e-07) 
( 7.671084e-07 0 -2.690280e-07) 
( 8.170793e-07 0 -1.965953e-07) 
( 8.170793e-07 0 -1.965953e-07) 
( 7.668212e-07 0 -2.696611e-07) 
( 8.170793e-07 0 -1.965953e-07) 
( 8.170793e-07 0 -1.965953e-07) 
( 7.566412e-07 0 -2.544031e-07) 
( 7.861834e-07 0 -2.189114e-07) 
( 8.170793e-07 0 -1.965953e-07) 
( 8.020038e-07 0 -2.184174e-07) 
( 7.834558e-07 0 -1.017070e-07) 