/*--------------------------------*- C++ -*----------------------------------*\
| =========                 |                                                 |
| \\      /  F ield         | foam-extend: Open Source CFD                    |
|  \\    /   O peration     | Version:     3.1                                |
|   \\  /    A nd           | Web:         http://www.extend-project.de       |
|    \\/     M anipulation  |                                                 |
\*---------------------------------------------------------------------------*/
FoamFile
{
    version     2.0;
    format      ascii;
    class       volVectorField;
    location    "172800";
    object      DU_0;
}
// * * * * * * * * * * * * * * * * * * * * * * * * * * * * * * * * * * * * * //

dimensions      [0 1 0 0 0 0 0];

internalField   nonuniform List<vector> 
21211
(
(1.18657e-08 3.32847e-11 -6.75187e-07)
(1.18645e-08 1.47093e-11 -6.75186e-07)
(1.18648e-08 2.00254e-11 -6.75187e-07)
(1.18792e-08 4.22069e-11 -6.75198e-07)
(1.19087e-08 1.28959e-10 -6.75217e-07)
(1.19073e-08 3.6651e-10 -6.75251e-07)
(1.19332e-08 9.03906e-10 -6.75332e-07)
(1.19993e-08 2.35945e-09 -6.75453e-07)
(1.18688e-08 7.09871e-09 -6.74257e-07)
(1.09933e-08 -1.26347e-11 -6.89035e-07)
(1.09897e-08 2.25308e-11 -6.89034e-07)
(1.09912e-08 3.88451e-11 -6.89031e-07)
(1.10288e-08 9.15712e-11 -6.89044e-07)
(1.1082e-08 2.72292e-10 -6.89056e-07)
(1.11027e-08 7.43189e-10 -6.89029e-07)
(1.11543e-08 1.92462e-09 -6.88955e-07)
(1.13136e-08 5.09831e-09 -6.88525e-07)
(1.13859e-08 1.32561e-08 -6.84835e-07)
(5.05167e-08 3.7405e-11 -6.98311e-07)
(5.05184e-08 1.36752e-11 -6.98307e-07)
(5.0521e-08 2.19132e-11 -6.98309e-07)
(5.05261e-08 5.36586e-11 -6.98315e-07)
(5.05218e-08 1.40721e-10 -6.98327e-07)
(5.05326e-08 3.66948e-10 -6.98362e-07)
(5.05586e-08 9.4683e-10 -6.98447e-07)
(5.05726e-08 2.50728e-09 -6.98571e-07)
(5.04647e-08 7.47036e-09 -6.97652e-07)
(5.08336e-08 -1.3969e-11 -7.11799e-07)
(5.08343e-08 2.1873e-11 -7.11803e-07)
(5.08403e-08 4.51842e-11 -7.11802e-07)
(5.08618e-08 1.11882e-10 -7.11805e-07)
(5.08751e-08 2.93037e-10 -7.11795e-07)
(5.08936e-08 7.70876e-10 -7.1177e-07)
(5.09406e-08 2.0367e-09 -7.11696e-07)
(5.1047e-08 5.44797e-09 -7.11277e-07)
(5.10197e-08 1.4453e-08 -7.08306e-07)
(9.23774e-08 5.04554e-11 -7.19085e-07)
(9.23777e-08 1.56782e-11 -7.19078e-07)
(9.23799e-08 2.41446e-11 -7.19079e-07)
(9.23854e-08 5.82044e-11 -7.19086e-07)
(9.23807e-08 1.47976e-10 -7.191e-07)
(9.23915e-08 3.81786e-10 -7.19136e-07)
(9.2422e-08 9.81099e-10 -7.19224e-07)
(9.24424e-08 2.5668e-09 -7.1936e-07)
(9.22748e-08 7.4734e-09 -7.18636e-07)
(9.37692e-08 -3.8525e-12 -7.32761e-07)
(9.37705e-08 2.56795e-11 -7.32771e-07)
(9.37749e-08 4.90552e-11 -7.3277e-07)
(9.37968e-08 1.1947e-10 -7.32771e-07)
(9.38056e-08 3.06721e-10 -7.32761e-07)
(9.38178e-08 7.99114e-10 -7.32732e-07)
(9.38454e-08 2.09986e-09 -7.32651e-07)
(9.38843e-08 5.56899e-09 -7.3225e-07)
(9.37526e-08 1.46406e-08 -7.29496e-07)
(1.37173e-07 3.54692e-11 -7.36866e-07)
(1.37173e-07 1.40901e-11 -7.36859e-07)
(1.37175e-07 2.49837e-11 -7.36861e-07)
(1.37179e-07 6.05143e-11 -7.36867e-07)
(1.37175e-07 1.54373e-10 -7.36882e-07)
(1.37192e-07 3.97152e-10 -7.36919e-07)
(1.37229e-07 1.02382e-09 -7.37007e-07)
(1.37248e-07 2.70734e-09 -7.37157e-07)
(1.37086e-07 7.98407e-09 -7.36373e-07)
(1.39972e-07 6.74692e-12 -7.52104e-07)
(1.39976e-07 2.64053e-11 -7.52118e-07)
(1.39981e-07 5.14849e-11 -7.52119e-07)
(1.39998e-07 1.25504e-10 -7.52118e-07)
(1.40004e-07 3.21845e-10 -7.52104e-07)
(1.40017e-07 8.36274e-10 -7.52069e-07)
(1.40046e-07 2.19708e-09 -7.5197e-07)
(1.40075e-07 5.85321e-09 -7.51529e-07)
(1.39674e-07 1.55877e-08 -7.48817e-07)
(1.83935e-07 4.80802e-11 -7.5024e-07)
(1.83935e-07 1.65922e-11 -7.5023e-07)
(1.83938e-07 2.76565e-11 -7.50231e-07)
(1.83944e-07 6.62758e-11 -7.50238e-07)
(1.83943e-07 1.68177e-10 -7.50251e-07)
(1.83964e-07 4.31201e-10 -7.50288e-07)
(1.84017e-07 1.10473e-09 -7.50378e-07)
(1.84068e-07 2.89521e-09 -7.50509e-07)
(1.83981e-07 8.47064e-09 -7.49815e-07)
(1.87263e-07 3.7933e-11 -7.64291e-07)
(1.87269e-07 3.32521e-11 -7.64309e-07)
(1.87275e-07 5.67912e-11 -7.6431e-07)
(1.87286e-07 1.36316e-10 -7.64305e-07)
(1.87292e-07 3.47905e-10 -7.64289e-07)
(1.87308e-07 9.01237e-10 -7.6425e-07)
(1.87334e-07 2.35802e-09 -7.64142e-07)
(1.87313e-07 6.24404e-09 -7.63686e-07)
(1.86579e-07 1.64636e-08 -7.61195e-07)
(2.34108e-07 2.90015e-11 -7.54206e-07)
(2.34104e-07 1.48282e-11 -7.54199e-07)
(2.34106e-07 2.78751e-11 -7.54202e-07)
(2.34108e-07 6.67839e-11 -7.5421e-07)
(2.34105e-07 1.70369e-10 -7.5423e-07)
(2.34128e-07 4.36833e-10 -7.54271e-07)
(2.3417e-07 1.12143e-09 -7.54373e-07)
(2.34194e-07 2.9478e-09 -7.54575e-07)
(2.34073e-07 8.53453e-09 -7.54056e-07)
(2.38278e-07 5.81438e-11 -7.69539e-07)
(2.38284e-07 3.57379e-11 -7.69557e-07)
(2.38287e-07 6.00895e-11 -7.69559e-07)
(2.38291e-07 1.43964e-10 -7.69553e-07)
(2.38295e-07 3.68252e-10 -7.69539e-07)
(2.38309e-07 9.52253e-10 -7.69499e-07)
(2.38341e-07 2.48297e-09 -7.69393e-07)
(2.38348e-07 6.56259e-09 -7.68983e-07)
(2.37728e-07 1.73985e-08 -7.66897e-07)
(2.88806e-07 1.9978e-11 -7.67236e-07)
(2.88807e-07 1.63835e-11 -7.67231e-07)
(2.8881e-07 3.2713e-11 -7.67234e-07)
(2.88818e-07 7.81707e-11 -7.6724e-07)
(2.88825e-07 1.97008e-10 -7.67253e-07)
(2.88847e-07 5.01643e-10 -7.67292e-07)
(2.88932e-07 1.27386e-09 -7.67387e-07)
(2.89022e-07 3.31038e-09 -7.67521e-07)
(2.88668e-07 9.62904e-09 -7.66789e-07)
(2.95419e-07 8.40977e-11 -7.79608e-07)
(2.95423e-07 3.93727e-11 -7.79618e-07)
(2.95425e-07 6.56574e-11 -7.79618e-07)
(2.95428e-07 1.57528e-10 -7.79611e-07)
(2.95429e-07 3.99468e-10 -7.79593e-07)
(2.95431e-07 1.02401e-09 -7.79551e-07)
(2.95435e-07 2.65793e-09 -7.79436e-07)
(2.95328e-07 7.00581e-09 -7.78947e-07)
(2.94366e-07 1.84837e-08 -7.76264e-07)
(3.47565e-07 8.93994e-12 -7.63569e-07)
(3.47563e-07 1.39606e-11 -7.63567e-07)
(3.47568e-07 3.15734e-11 -7.63569e-07)
(3.47575e-07 7.87984e-11 -7.63576e-07)
(3.47583e-07 1.98401e-10 -7.63594e-07)
(3.47595e-07 5.01324e-10 -7.63644e-07)
(3.47636e-07 1.26658e-09 -7.63754e-07)
(3.4765e-07 3.29557e-09 -7.63931e-07)
(3.47194e-07 9.68799e-09 -7.62991e-07)
(3.55267e-07 8.67666e-11 -7.79291e-07)
(3.55267e-07 3.85821e-11 -7.79293e-07)
(3.55262e-07 6.93468e-11 -7.79292e-07)
(3.55261e-07 1.69496e-10 -7.79284e-07)
(3.55261e-07 4.28135e-10 -7.79265e-07)
(3.55261e-07 1.09086e-09 -7.79221e-07)
(3.55247e-07 2.80262e-09 -7.79091e-07)
(3.55074e-07 7.27601e-09 -7.78541e-07)
(3.53731e-07 1.88722e-08 -7.75706e-07)
(4.10761e-07 -5.73395e-12 -7.67729e-07)
(4.10763e-07 1.43405e-11 -7.67732e-07)
(4.1075e-07 3.62025e-11 -7.67742e-07)
(4.10753e-07 8.91438e-11 -7.67751e-07)
(4.10773e-07 2.22358e-10 -7.67769e-07)
(4.10803e-07 5.55066e-10 -7.6781e-07)
(4.10895e-07 1.39241e-09 -7.67912e-07)
(4.11005e-07 3.59377e-09 -7.68019e-07)
(4.1048e-07 1.06539e-08 -7.66954e-07)
(4.2234e-07 5.64058e-11 -7.82527e-07)
(4.22329e-07 3.34788e-11 -7.82519e-07)
(4.22314e-07 7.36255e-11 -7.82518e-07)
(4.22308e-07 1.82465e-10 -7.82511e-07)
(4.22306e-07 4.57737e-10 -7.82491e-07)
(4.22297e-07 1.16117e-09 -7.82447e-07)
(4.22254e-07 2.98527e-09 -7.82313e-07)
(4.21959e-07 7.75499e-09 -7.81692e-07)
(4.20157e-07 2.01708e-08 -7.78627e-07)
(4.8472e-07 2.14093e-12 -7.64456e-07)
(4.84719e-07 1.66622e-11 -7.64461e-07)
(4.84695e-07 4.05538e-11 -7.64471e-07)
(4.847e-07 9.68957e-11 -7.64479e-07)
(4.84718e-07 2.35396e-10 -7.64496e-07)
(4.84739e-07 5.73063e-10 -7.64556e-07)
(4.8467e-07 1.47208e-09 -7.64844e-07)
(4.84818e-07 3.91649e-09 -7.64796e-07)
(4.83897e-07 1.15331e-08 -7.63378e-07)
(4.95753e-07 3.16626e-11 -7.78658e-07)
(4.9574e-07 3.37388e-11 -7.78635e-07)
(4.95728e-07 8.43203e-11 -7.78627e-07)
(4.95725e-07 2.04796e-10 -7.78616e-07)
(4.95725e-07 5.01704e-10 -7.78593e-07)
(4.95685e-07 1.25134e-09 -7.78555e-07)
(4.95563e-07 3.22263e-09 -7.78426e-07)
(4.95156e-07 8.25169e-09 -7.7761e-07)
(4.92526e-07 2.07174e-08 -7.7379e-07)
(5.58404e-07 -6.10698e-13 -7.53066e-07)
(5.58411e-07 2.00019e-11 -7.53074e-07)
(5.58406e-07 4.64572e-11 -7.53077e-07)
(5.58417e-07 1.16622e-10 -7.53083e-07)
(5.58446e-07 2.90234e-10 -7.53096e-07)
(5.58313e-07 7.83639e-10 -7.5313e-07)
(5.73719e-07 3.6549e-09 -7.51669e-07)
(5.57954e-07 3.71322e-09 -7.53029e-07)
(5.57405e-07 1.2485e-08 -7.51451e-07)
(5.72253e-07 -1.9641e-12 -7.65223e-07)
(5.72237e-07 3.54285e-11 -7.65203e-07)
(5.72232e-07 9.81045e-11 -7.65191e-07)
(5.72232e-07 2.45569e-10 -7.65176e-07)
(5.72217e-07 6.18258e-10 -7.65141e-07)
(5.72e-07 1.55347e-09 -7.65009e-07)
(5.71288e-07 3.46326e-09 -7.64224e-07)
(5.7104e-07 8.5855e-09 -7.63708e-07)
(5.6859e-07 2.23493e-08 -7.5958e-07)
(6.4342e-07 1.22199e-11 -7.29043e-07)
(6.43427e-07 2.26495e-11 -7.29044e-07)
(6.43433e-07 5.25649e-11 -7.29044e-07)
(6.43448e-07 1.2673e-10 -7.29046e-07)
(6.43483e-07 3.00099e-10 -7.29055e-07)
(6.43677e-07 6.59211e-10 -7.2905e-07)
(6.46406e-07 1.60178e-09 -7.2888e-07)
(6.44495e-07 4.87812e-09 -7.28978e-07)
(6.41903e-07 1.32584e-08 -7.27432e-07)
(6.56269e-07 -1.85371e-11 -7.40064e-07)
(6.56264e-07 3.83035e-11 -7.4005e-07)
(6.56262e-07 1.08002e-10 -7.40038e-07)
(6.56266e-07 2.6188e-10 -7.40018e-07)
(6.56288e-07 6.23608e-10 -7.39974e-07)
(6.5642e-07 1.49761e-09 -7.39887e-07)
(6.56541e-07 3.82975e-09 -7.39827e-07)
(6.55579e-07 9.69421e-09 -7.38777e-07)
(6.50803e-07 2.39535e-08 -7.34424e-07)
(7.22359e-07 4.30296e-11 -6.86098e-07)
(7.22359e-07 2.98013e-11 -6.86095e-07)
(7.22365e-07 6.11454e-11 -6.86094e-07)
(7.2238e-07 1.44475e-10 -6.86095e-07)
(7.22417e-07 3.41138e-10 -6.86102e-07)
(7.22517e-07 8.00237e-10 -6.86115e-07)
(7.2266e-07 1.9264e-09 -6.86158e-07)
(7.22632e-07 4.87589e-09 -6.86116e-07)
(7.20329e-07 1.42092e-08 -6.84308e-07)
(7.32952e-07 -3.64363e-11 -6.95284e-07)
(7.32946e-07 4.54672e-11 -6.95275e-07)
(7.32947e-07 1.27251e-10 -6.9526e-07)
(7.32955e-07 3.05732e-10 -6.95233e-07)
(7.32977e-07 7.3081e-10 -6.95177e-07)
(7.33011e-07 1.76609e-09 -6.95062e-07)
(7.32927e-07 4.32278e-09 -6.94786e-07)
(7.31906e-07 1.06058e-08 -6.93809e-07)
(7.26651e-07 2.57098e-08 -6.89463e-07)
(7.96991e-07 6.70505e-11 -6.26241e-07)
(7.96987e-07 3.57809e-11 -6.26234e-07)
(7.96991e-07 6.98136e-11 -6.26232e-07)
(7.97007e-07 1.6294e-10 -6.26233e-07)
(7.97041e-07 3.8126e-10 -6.2624e-07)
(7.97114e-07 8.88763e-10 -6.26261e-07)
(7.97228e-07 2.08608e-09 -6.26299e-07)
(7.97198e-07 5.16895e-09 -6.26181e-07)
(7.94693e-07 1.5168e-08 -6.24092e-07)
(8.07016e-07 -1.79866e-11 -6.33371e-07)
(8.07016e-07 5.56415e-11 -6.33363e-07)
(8.07016e-07 1.45738e-10 -6.33348e-07)
(8.07019e-07 3.4521e-10 -6.33321e-07)
(8.07023e-07 8.14647e-10 -6.33267e-07)
(8.07008e-07 1.93444e-09 -6.33156e-07)
(8.06827e-07 4.63655e-09 -6.32871e-07)
(8.05663e-07 1.11974e-08 -6.31787e-07)
(8.00204e-07 2.68287e-08 -6.26776e-07)
(8.66752e-07 6.68873e-11 -5.44508e-07)
(8.66744e-07 3.80191e-11 -5.44505e-07)
(8.66748e-07 7.67426e-11 -5.44504e-07)
(8.66763e-07 1.7751e-10 -5.44506e-07)
(8.66797e-07 4.09214e-10 -5.44515e-07)
(8.66865e-07 9.38844e-10 -5.44539e-07)
(8.6697e-07 2.16923e-09 -5.44581e-07)
(8.66894e-07 5.29149e-09 -5.44485e-07)
(8.64149e-07 1.51289e-08 -5.42963e-07)
(8.75259e-07 -2.9004e-11 -5.52484e-07)
(8.75259e-07 5.97671e-11 -5.52478e-07)
(8.75258e-07 1.61951e-10 -5.52462e-07)
(8.75258e-07 3.80713e-10 -5.52433e-07)
(8.75255e-07 8.86813e-10 -5.52375e-07)
(8.75224e-07 2.07579e-09 -5.52256e-07)
(8.75009e-07 4.90164e-09 -5.51967e-07)
(8.73763e-07 1.1667e-08 -5.5098e-07)
(8.68099e-07 2.76878e-08 -5.46788e-07)
(9.34271e-07 5.86957e-11 -4.51039e-07)
(9.34265e-07 4.22101e-11 -4.51036e-07)
(9.3427e-07 8.65111e-11 -4.51034e-07)
(9.34286e-07 1.97697e-10 -4.51034e-07)
(9.34322e-07 4.50508e-10 -4.51037e-07)
(9.34393e-07 1.02258e-09 -4.5105e-07)
(9.34491e-07 2.34226e-09 -4.51077e-07)
(9.34333e-07 5.68995e-09 -4.50987e-07)
(9.30627e-07 1.62327e-08 -4.49844e-07)
(9.41054e-07 -1.07067e-11 -4.5785e-07)
(9.41051e-07 7.01471e-11 -4.57841e-07)
(9.41047e-07 1.79474e-10 -4.57826e-07)
(9.41042e-07 4.16175e-10 -4.57797e-07)
(9.41029e-07 9.59608e-10 -4.57741e-07)
(9.40972e-07 2.22615e-09 -4.57632e-07)
(9.40666e-07 5.21678e-09 -4.57387e-07)
(9.39034e-07 1.23376e-08 -4.56605e-07)
(9.31784e-07 2.90408e-08 -4.53222e-07)
(9.85572e-07 6.4272e-11 -3.39744e-07)
(9.85567e-07 4.63999e-11 -3.39743e-07)
(9.85571e-07 9.29104e-11 -3.39742e-07)
(9.85586e-07 2.09369e-10 -3.39742e-07)
(9.8562e-07 4.70737e-10 -3.39746e-07)
(9.85684e-07 1.05312e-09 -3.39763e-07)
(9.8575e-07 2.38169e-09 -3.39798e-07)
(9.85399e-07 5.78171e-09 -3.39768e-07)
(9.80552e-07 1.6923e-08 -3.39235e-07)
(9.91113e-07 -1.64332e-11 -3.47566e-07)
(9.91107e-07 7.65856e-11 -3.47559e-07)
(9.91099e-07 1.94915e-10 -3.47544e-07)
(9.91088e-07 4.47235e-10 -3.47516e-07)
(9.91063e-07 1.01997e-09 -3.47466e-07)
(9.90978e-07 2.33728e-09 -3.47371e-07)
(9.90559e-07 5.39231e-09 -3.47182e-07)
(9.88365e-07 1.24646e-08 -3.46656e-07)
(9.78482e-07 2.83523e-08 -3.44486e-07)
(1.01949e-06 6.45617e-11 -2.15251e-07)
(1.01949e-06 4.93656e-11 -2.15251e-07)
(1.01949e-06 9.77853e-11 -2.15249e-07)
(1.0195e-06 2.18251e-10 -2.15249e-07)
(1.01954e-06 4.86775e-10 -2.1525e-07)
(1.0196e-06 1.08025e-09 -2.15258e-07)
(1.01967e-06 2.42027e-09 -2.15275e-07)
(1.01933e-06 5.78533e-09 -2.15228e-07)
(1.01489e-06 1.64247e-08 -2.14616e-07)
(1.02419e-06 -1.25573e-11 -2.24609e-07)
(1.02418e-06 8.19673e-11 -2.24602e-07)
(1.02417e-06 2.05124e-10 -2.2459e-07)
(1.02415e-06 4.66899e-10 -2.24568e-07)
(1.02412e-06 1.05821e-09 -2.24525e-07)
(1.02402e-06 2.4122e-09 -2.24446e-07)
(1.02357e-06 5.54184e-09 -2.24284e-07)
(1.02134e-06 1.27829e-08 -2.2383e-07)
(1.0114e-06 2.91079e-08 -2.21941e-07)
(1.02575e-06 6.14375e-11 -8.29453e-08)
(1.02575e-06 5.04028e-11 -8.29443e-08)
(1.02576e-06 9.80213e-11 -8.29434e-08)
(1.02577e-06 2.16384e-10 -8.29435e-08)
(1.0258e-06 4.79067e-10 -8.29456e-08)
(1.02587e-06 1.05561e-09 -8.29531e-08)
(1.02594e-06 2.34956e-09 -8.29681e-08)
(1.02555e-06 5.61185e-09 -8.29432e-08)
(1.02062e-06 1.61671e-08 -8.29787e-08)
(1.031e-06 -6.37451e-12 -9.39555e-08)
(1.03098e-06 8.74806e-11 -9.39533e-08)
(1.03097e-06 2.10793e-10 -9.39434e-08)
(1.03095e-06 4.74891e-10 -9.39237e-08)
(1.03092e-06 1.06999e-09 -9.38862e-08)
(1.03081e-06 2.42677e-09 -9.38154e-08)
(1.03035e-06 5.54608e-09 -9.36782e-08)
(1.02802e-06 1.26961e-08 -9.33424e-08)
(1.01725e-06 2.84713e-08 -9.17018e-08)
(-1.35178e-08 2.93373e-11 -6.51964e-07)
(-1.35234e-08 1.70387e-11 -6.51962e-07)
(-1.35345e-08 2.1565e-11 -6.51961e-07)
(-1.35101e-08 2.33046e-11 -6.51986e-07)
(-1.33497e-08 8.70579e-11 -6.52077e-07)
(-1.34736e-08 3.60956e-10 -6.52057e-07)
(-1.35426e-08 7.98216e-10 -6.52094e-07)
(-1.34782e-08 2.04262e-09 -6.52216e-07)
(-1.33293e-08 6.18424e-09 -6.5123e-07)
(-4.5225e-08 3.96392e-11 -6.28042e-07)
(-4.52508e-08 4.20337e-11 -6.28025e-07)
(-4.54545e-08 8.30663e-11 -6.27909e-07)
(-4.54842e-08 8.97017e-11 -6.27886e-07)
(-5.06027e-08 2.35568e-10 -6.28658e-07)
(-4.51424e-08 3.48887e-10 -6.28244e-07)
(-4.52762e-08 1.027e-09 -6.28115e-07)
(-5.05349e-08 5.90875e-09 -6.28265e-07)
(-4.99042e-08 1.43397e-08 -6.23018e-07)
(-8.4274e-08 -8.70141e-11 -6.06972e-07)
(-8.42539e-08 -2.61256e-10 -6.07085e-07)
(-7.80586e-08 -3.54489e-11 -6.08752e-07)
(-7.82454e-08 -3.18563e-11 -6.08591e-07)
(-7.87697e-08 2.74888e-13 -6.08619e-07)
(-8.43413e-08 1.10463e-09 -6.07192e-07)
(-8.43509e-08 1.84306e-09 -6.07305e-07)
(-7.89912e-08 2.15632e-09 -6.08664e-07)
(-7.86656e-08 6.4583e-09 -6.06874e-07)
(-1.06506e-07 -2.25048e-11 -5.69755e-07)
(-1.06524e-07 4.06665e-11 -5.69774e-07)
(-1.06534e-07 1.98827e-10 -5.69848e-07)
(-1.06526e-07 5.36934e-11 -5.6991e-07)
(-1.06547e-07 6.60691e-11 -5.69914e-07)
(-1.0658e-07 1.49517e-10 -5.69815e-07)
(-1.06613e-07 8.13565e-10 -5.69859e-07)
(-1.06737e-07 2.03282e-09 -5.69855e-07)
(-1.06228e-07 5.64451e-09 -5.67826e-07)
(-1.30943e-07 9.24909e-12 -5.3257e-07)
(-1.30942e-07 8.84817e-12 -5.32575e-07)
(-1.30945e-07 1.65748e-11 -5.32562e-07)
(-1.30944e-07 4.67313e-11 -5.32562e-07)
(-1.30951e-07 1.16018e-10 -5.32573e-07)
(-1.30975e-07 2.86713e-10 -5.326e-07)
(-1.3101e-07 6.84138e-10 -5.32657e-07)
(-1.31072e-07 1.64812e-09 -5.32619e-07)
(-1.30567e-07 4.8151e-09 -5.30824e-07)
(-1.56628e-07 8.52643e-12 -5.07948e-07)
(-1.56632e-07 1.18286e-11 -5.07952e-07)
(-1.56643e-07 2.10512e-11 -5.07946e-07)
(-1.56651e-07 5.03488e-11 -5.07947e-07)
(-1.56659e-07 1.2404e-10 -5.07955e-07)
(-1.56679e-07 3.03666e-10 -5.07977e-07)
(-1.56738e-07 7.31783e-10 -5.08021e-07)
(-1.56875e-07 1.76645e-09 -5.08003e-07)
(-1.56523e-07 5.09908e-09 -5.06411e-07)
(-1.81894e-07 7.02261e-12 -4.81833e-07)
(-1.81897e-07 1.14416e-11 -4.81836e-07)
(-1.81902e-07 2.15834e-11 -4.81834e-07)
(-1.81911e-07 5.09487e-11 -4.81833e-07)
(-1.81918e-07 1.25608e-10 -4.81842e-07)
(-1.81931e-07 3.05299e-10 -4.81867e-07)
(-1.81964e-07 7.27855e-10 -4.81926e-07)
(-1.8199e-07 1.74381e-09 -4.81954e-07)
(-1.80943e-07 5.26748e-09 -4.7996e-07)
(-2.08636e-07 1.12186e-11 -4.59579e-07)
(-2.08639e-07 1.22671e-11 -4.59582e-07)
(-2.08641e-07 2.27745e-11 -4.59583e-07)
(-2.08649e-07 5.29577e-11 -4.59584e-07)
(-2.08659e-07 1.27408e-10 -4.59591e-07)
(-2.08676e-07 3.02425e-10 -4.59614e-07)
(-2.08714e-07 6.95565e-10 -4.59669e-07)
(-2.08734e-07 1.56728e-09 -4.59685e-07)
(-2.07649e-07 4.36922e-09 -4.57875e-07)
(-2.37028e-07 1.10922e-11 -4.42738e-07)
(-2.37029e-07 1.31964e-11 -4.4274e-07)
(-2.37031e-07 2.57519e-11 -4.42741e-07)
(-2.37036e-07 6.01425e-11 -4.42743e-07)
(-2.37048e-07 1.42514e-10 -4.42748e-07)
(-2.37073e-07 3.34462e-10 -4.42768e-07)
(-2.3713e-07 7.66648e-10 -4.42817e-07)
(-2.3718e-07 1.77249e-09 -4.42813e-07)
(-2.35682e-07 5.45637e-09 -4.40415e-07)
(-2.66109e-07 1.25782e-11 -4.18998e-07)
(-2.6611e-07 1.31749e-11 -4.18998e-07)
(-2.66112e-07 2.77226e-11 -4.18999e-07)
(-2.66117e-07 6.45299e-11 -4.19003e-07)
(-2.66131e-07 1.51945e-10 -4.19011e-07)
(-2.66161e-07 3.52975e-10 -4.19032e-07)
(-2.6622e-07 7.93235e-10 -4.19082e-07)
(-2.66231e-07 1.78349e-09 -4.19078e-07)
(-2.64416e-07 5.22067e-09 -4.16954e-07)
(-3.00645e-07 1.25452e-11 -4.05724e-07)
(-3.00646e-07 1.51836e-11 -4.05725e-07)
(-3.00648e-07 3.44695e-11 -4.05725e-07)
(-3.00656e-07 8.14006e-11 -4.05727e-07)
(-3.00671e-07 1.90111e-10 -4.05733e-07)
(-3.00706e-07 4.37979e-10 -4.05751e-07)
(-3.00787e-07 9.85806e-10 -4.0579e-07)
(-3.00837e-07 2.26774e-09 -4.05761e-07)
(-2.98851e-07 6.74151e-09 -4.03681e-07)
(-3.35604e-07 3.80015e-12 -3.78861e-07)
(-3.35606e-07 1.50954e-11 -3.78862e-07)
(-3.35609e-07 3.9737e-11 -3.78862e-07)
(-3.35616e-07 9.48552e-11 -3.78865e-07)
(-3.35632e-07 2.20169e-10 -3.78871e-07)
(-3.35671e-07 5.02695e-10 -3.78889e-07)
(-3.35744e-07 1.12974e-09 -3.78932e-07)
(-3.35739e-07 2.62678e-09 -3.78883e-07)
(-3.33385e-07 7.73196e-09 -3.76845e-07)
(-3.64103e-07 -3.42842e-12 -3.45805e-07)
(-3.64103e-07 1.58969e-11 -3.45807e-07)
(-3.64106e-07 4.56689e-11 -3.45808e-07)
(-3.64113e-07 1.08314e-10 -3.45812e-07)
(-3.6413e-07 2.46821e-10 -3.45821e-07)
(-3.64164e-07 5.53372e-10 -3.45848e-07)
(-3.64219e-07 1.22382e-09 -3.45913e-07)
(-3.64148e-07 2.79881e-09 -3.45904e-07)
(-3.61719e-07 7.94487e-09 -3.44078e-07)
(-3.88417e-07 -6.3322e-12 -3.05489e-07)
(-3.88419e-07 1.75436e-11 -3.0549e-07)
(-3.88422e-07 5.09993e-11 -3.05491e-07)
(-3.8843e-07 1.1871e-10 -3.05495e-07)
(-3.88448e-07 2.64579e-10 -3.05504e-07)
(-3.88484e-07 5.78528e-10 -3.05529e-07)
(-3.88545e-07 1.24641e-09 -3.05581e-07)
(-3.8848e-07 2.77434e-09 -3.05539e-07)
(-3.86336e-07 7.63031e-09 -3.03956e-07)
(-4.0697e-07 -9.44224e-12 -2.56949e-07)
(-4.06974e-07 2.01597e-11 -2.5695e-07)
(-4.06978e-07 5.76855e-11 -2.56951e-07)
(-4.06987e-07 1.319e-10 -2.56953e-07)
(-4.07007e-07 2.88961e-10 -2.56959e-07)
(-4.07052e-07 6.21382e-10 -2.56975e-07)
(-4.07128e-07 1.31952e-09 -2.57001e-07)
(-4.0709e-07 2.89103e-09 -2.56908e-07)
(-4.05032e-07 7.60779e-09 -2.55692e-07)
(-4.16522e-07 -1.158e-11 -2.02316e-07)
(-4.16527e-07 2.30495e-11 -2.02317e-07)
(-4.16531e-07 6.52674e-11 -2.02318e-07)
(-4.16542e-07 1.47432e-10 -2.02319e-07)
(-4.16565e-07 3.19274e-10 -2.02323e-07)
(-4.16614e-07 6.79925e-10 -2.02335e-07)
(-4.16697e-07 1.43614e-09 -2.02352e-07)
(-4.16647e-07 3.15202e-09 -2.02266e-07)
(-4.14196e-07 8.37292e-09 -2.01314e-07)
(-4.15789e-07 -1.47807e-11 -1.45194e-07)
(-4.15794e-07 2.47946e-11 -1.45194e-07)
(-4.15799e-07 7.08159e-11 -1.45195e-07)
(-4.15811e-07 1.58624e-10 -1.45197e-07)
(-4.15836e-07 3.40036e-10 -1.45201e-07)
(-4.1589e-07 7.16087e-10 -1.45212e-07)
(-4.15976e-07 1.49411e-09 -1.45233e-07)
(-4.15901e-07 3.22662e-09 -1.4521e-07)
(-4.1357e-07 8.28625e-09 -1.44899e-07)
(-4.17893e-07 -1.64925e-11 -9.17593e-08)
(-4.17898e-07 2.76744e-11 -9.17601e-08)
(-4.17904e-07 7.85834e-11 -9.17598e-08)
(-4.17915e-07 1.74934e-10 -9.17595e-08)
(-4.17941e-07 3.72709e-10 -9.17595e-08)
(-4.17995e-07 7.80635e-10 -9.17602e-08)
(-4.18082e-07 1.62267e-09 -9.17536e-08)
(-4.17996e-07 3.51697e-09 -9.16464e-08)
(-4.1504e-07 9.22535e-09 -9.09417e-08)
(-4.09502e-07 -1.76271e-11 -3.56956e-08)
(-4.09508e-07 2.72398e-11 -3.5695e-08)
(-4.09513e-07 7.78645e-11 -3.56953e-08)
(-4.09525e-07 1.72305e-10 -3.56963e-08)
(-4.0955e-07 3.64227e-10 -3.5699e-08)
(-4.09605e-07 7.55562e-10 -3.57044e-08)
(-4.09693e-07 1.55075e-09 -3.57069e-08)
(-4.09593e-07 3.3043e-09 -3.56237e-08)
(-4.06687e-07 8.56859e-09 -3.50045e-08)
(-8.84588e-09 -9.33724e-12 -6.72264e-07)
(-8.85743e-09 2.89872e-11 -6.72258e-07)
(-8.87203e-09 4.15584e-11 -6.72248e-07)
(-8.83247e-09 7.2648e-11 -6.72282e-07)
(-8.73495e-09 2.54942e-10 -6.72367e-07)
(-8.77326e-09 7.51512e-10 -6.72289e-07)
(-8.80606e-09 1.89579e-09 -6.72163e-07)
(-8.70488e-09 5.00537e-09 -6.71789e-07)
(-8.8208e-09 1.29512e-08 -6.68201e-07)
(-4.16939e-08 -1.17135e-11 -6.44335e-07)
(-4.17349e-08 5.95593e-11 -6.44292e-07)
(-4.18475e-08 9.89823e-11 -6.44158e-07)
(-4.19154e-08 9.81794e-11 -6.44104e-07)
(-4.21906e-08 2.09729e-10 -6.44385e-07)
(-4.18676e-08 7.90179e-10 -6.44283e-07)
(-4.17963e-08 2.02143e-09 -6.44096e-07)
(-4.20723e-08 4.93244e-09 -6.4381e-07)
(-4.18877e-08 1.206e-08 -6.40556e-07)
(-7.7834e-08 4.91738e-12 -6.22735e-07)
(-7.7821e-08 -6.80983e-11 -6.22743e-07)
(-7.73265e-08 -2.81371e-11 -6.22544e-07)
(-7.72719e-08 8.20472e-11 -6.22458e-07)
(-7.72865e-08 3.04054e-10 -6.22416e-07)
(-7.77181e-08 7.60534e-10 -6.22623e-07)
(-7.78043e-08 1.79134e-09 -6.22636e-07)
(-7.73284e-08 4.82184e-09 -6.21744e-07)
(-7.68904e-08 1.19491e-08 -6.1672e-07)
(-1.04465e-07 6.56874e-12 -5.86608e-07)
(-1.04488e-07 -2.15162e-11 -5.86605e-07)
(-1.04757e-07 -2.99101e-11 -5.8664e-07)
(-1.04888e-07 8.21033e-11 -5.86673e-07)
(-1.04879e-07 3.08149e-10 -5.86654e-07)
(-1.04617e-07 7.5645e-10 -5.86567e-07)
(-1.04535e-07 1.787e-09 -5.86496e-07)
(-1.04682e-07 4.5831e-09 -5.86005e-07)
(-1.03951e-07 1.10781e-08 -5.805e-07)
(-1.30935e-07 6.83982e-12 -5.49543e-07)
(-1.30941e-07 1.81858e-11 -5.49536e-07)
(-1.30953e-07 3.92301e-11 -5.49518e-07)
(-1.3095e-07 1.03647e-10 -5.49508e-07)
(-1.30947e-07 2.63673e-10 -5.49503e-07)
(-1.30944e-07 6.59122e-10 -5.49494e-07)
(-1.30937e-07 1.64898e-09 -5.49454e-07)
(-1.30809e-07 4.14597e-09 -5.49009e-07)
(-1.29808e-07 9.5493e-09 -5.44155e-07)
(-1.56782e-07 1.66529e-11 -5.20228e-07)
(-1.56784e-07 2.43755e-11 -5.20222e-07)
(-1.56791e-07 4.59142e-11 -5.20213e-07)
(-1.56793e-07 1.08421e-10 -5.20208e-07)
(-1.56797e-07 2.67072e-10 -5.20197e-07)
(-1.5681e-07 6.65739e-10 -5.20175e-07)
(-1.56847e-07 1.68114e-09 -5.20119e-07)
(-1.56857e-07 4.29183e-09 -5.19676e-07)
(-1.56148e-07 1.04246e-08 -5.15321e-07)
(-1.83525e-07 1.55862e-11 -4.92927e-07)
(-1.83524e-07 2.41711e-11 -4.92922e-07)
(-1.83527e-07 4.70965e-11 -4.92917e-07)
(-1.83531e-07 1.10883e-10 -4.92909e-07)
(-1.83534e-07 2.71206e-10 -4.92899e-07)
(-1.83533e-07 6.70344e-10 -4.92885e-07)
(-1.83516e-07 1.67765e-09 -4.9287e-07)
(-1.83266e-07 4.23779e-09 -4.9251e-07)
(-1.81136e-07 9.75893e-09 -4.87758e-07)
(-2.11937e-07 1.55142e-11 -4.7101e-07)
(-2.11935e-07 2.46066e-11 -4.71005e-07)
(-2.11936e-07 4.89579e-11 -4.71e-07)
(-2.11941e-07 1.1429e-10 -4.70993e-07)
(-2.11944e-07 2.74693e-10 -4.70981e-07)
(-2.1195e-07 6.6366e-10 -4.70964e-07)
(-2.11954e-07 1.61677e-09 -4.70935e-07)
(-2.11733e-07 3.95468e-09 -4.70563e-07)
(-2.0944e-07 8.75606e-09 -4.65999e-07)
(-2.41346e-07 1.31161e-11 -4.52109e-07)
(-2.41342e-07 2.47922e-11 -4.52102e-07)
(-2.41342e-07 5.3891e-11 -4.52097e-07)
(-2.41345e-07 1.26026e-10 -4.52089e-07)
(-2.41353e-07 2.9971e-10 -4.52072e-07)
(-2.41369e-07 7.19217e-10 -4.52048e-07)
(-2.41388e-07 1.75166e-09 -4.52004e-07)
(-2.41113e-07 4.3252e-09 -4.51515e-07)
(-2.38064e-07 9.60377e-09 -4.46202e-07)
(-2.70857e-07 2.39501e-12 -4.29763e-07)
(-2.70853e-07 2.49622e-11 -4.29757e-07)
(-2.70853e-07 6.1136e-11 -4.29751e-07)
(-2.70858e-07 1.4391e-10 -4.29742e-07)
(-2.7087e-07 3.39686e-10 -4.29722e-07)
(-2.70896e-07 8.04227e-10 -4.29688e-07)
(-2.70935e-07 1.92008e-09 -4.29618e-07)
(-2.70614e-07 4.6003e-09 -4.29122e-07)
(-2.67162e-07 9.94772e-09 -4.2429e-07)
(-3.07794e-07 -4.89474e-12 -4.12481e-07)
(-3.07788e-07 2.55273e-11 -4.12472e-07)
(-3.07787e-07 7.09396e-11 -4.12465e-07)
(-3.07791e-07 1.69311e-10 -4.12454e-07)
(-3.07799e-07 3.97431e-10 -4.12432e-07)
(-3.07821e-07 9.34905e-10 -4.12391e-07)
(-3.07841e-07 2.224e-09 -4.12298e-07)
(-3.07402e-07 5.33467e-09 -4.11708e-07)
(-3.03195e-07 1.17827e-08 -4.06916e-07)
(-3.42019e-07 -1.22655e-11 -3.87684e-07)
(-3.42014e-07 2.79657e-11 -3.87677e-07)
(-3.42013e-07 8.42864e-11 -3.8767e-07)
(-3.42014e-07 2.02131e-10 -3.87657e-07)
(-3.42017e-07 4.71073e-10 -3.87632e-07)
(-3.42025e-07 1.09991e-09 -3.87584e-07)
(-3.42003e-07 2.59889e-09 -3.87471e-07)
(-3.41383e-07 6.16538e-09 -3.86836e-07)
(-3.3666e-07 1.36084e-08 -3.82226e-07)
(-3.71018e-07 -1.69501e-11 -3.53719e-07)
(-3.71013e-07 3.09796e-11 -3.53713e-07)
(-3.71011e-07 9.67812e-11 -3.53706e-07)
(-3.71009e-07 2.29845e-10 -3.53694e-07)
(-3.71006e-07 5.26321e-10 -3.53672e-07)
(-3.70995e-07 1.20456e-09 -3.53637e-07)
(-3.70909e-07 2.77762e-09 -3.53562e-07)
(-3.70102e-07 6.3894e-09 -3.53034e-07)
(-3.64833e-07 1.35995e-08 -3.48885e-07)
(-3.9603e-07 -1.59816e-11 -3.13107e-07)
(-3.96027e-07 3.61677e-11 -3.13102e-07)
(-3.96025e-07 1.08622e-10 -3.13094e-07)
(-3.96022e-07 2.52952e-10 -3.13081e-07)
(-3.96015e-07 5.67072e-10 -3.13058e-07)
(-3.95998e-07 1.26739e-09 -3.1302e-07)
(-3.95905e-07 2.84439e-09 -3.12925e-07)
(-3.9513e-07 6.35123e-09 -3.12367e-07)
(-3.90219e-07 1.32518e-08 -3.08527e-07)
(-4.14272e-07 -8.81858e-12 -2.65282e-07)
(-4.14268e-07 4.34154e-11 -2.65276e-07)
(-4.14265e-07 1.23907e-10 -2.65268e-07)
(-4.14261e-07 2.83679e-10 -2.65252e-07)
(-4.14253e-07 6.2647e-10 -2.65221e-07)
(-4.14237e-07 1.37991e-09 -2.65162e-07)
(-4.14148e-07 3.05497e-09 -2.65017e-07)
(-4.13368e-07 6.74426e-09 -2.64386e-07)
(-4.08346e-07 1.4066e-08 -2.60826e-07)
(-4.24253e-07 -5.14337e-12 -2.11369e-07)
(-4.24248e-07 5.03382e-11 -2.11364e-07)
(-4.24243e-07 1.40261e-10 -2.11355e-07)
(-4.24237e-07 3.17519e-10 -2.11337e-07)
(-4.24224e-07 6.93903e-10 -2.11304e-07)
(-4.242e-07 1.51349e-09 -2.11241e-07)
(-4.24085e-07 3.32179e-09 -2.11101e-07)
(-4.23215e-07 7.2893e-09 -2.10601e-07)
(-4.17907e-07 1.52574e-08 -2.0808e-07)
(-4.24384e-07 -1.03936e-12 -1.5492e-07)
(-4.24377e-07 5.66752e-11 -1.54916e-07)
(-4.24372e-07 1.55317e-10 -1.54907e-07)
(-4.24363e-07 3.48557e-10 -1.5489e-07)
(-4.24347e-07 7.54488e-10 -1.54858e-07)
(-4.24314e-07 1.62715e-09 -1.54797e-07)
(-4.24178e-07 3.51853e-09 -1.54672e-07)
(-4.23267e-07 7.55443e-09 -1.54327e-07)
(-4.17996e-07 1.53646e-08 -1.52924e-07)
(-4.2484e-07 2.5138e-12 -9.82761e-08)
(-4.24833e-07 6.04692e-11 -9.82731e-08)
(-4.24827e-07 1.6343e-10 -9.82675e-08)
(-4.24816e-07 3.64383e-10 -9.82568e-08)
(-4.24796e-07 7.84106e-10 -9.82365e-08)
(-4.24756e-07 1.68314e-09 -9.81962e-08)
(-4.24602e-07 3.63095e-09 -9.80956e-08)
(-4.23556e-07 7.79298e-09 -9.77359e-08)
(-4.17494e-07 1.56508e-08 -9.60834e-08)
(-4.16936e-07 4.60514e-12 -4.28656e-08)
(-4.16929e-07 6.2635e-11 -4.28645e-08)
(-4.16923e-07 1.68047e-10 -4.2861e-08)
(-4.16911e-07 3.72297e-10 -4.2854e-08)
(-4.1689e-07 7.95061e-10 -4.28413e-08)
(-4.1685e-07 1.69223e-09 -4.28167e-08)
(-4.16699e-07 3.61795e-09 -4.2746e-08)
(-4.15666e-07 7.69471e-09 -4.24315e-08)
(-4.09509e-07 1.53457e-08 -4.07603e-08)
(2.59369e-09 3.28481e-07 -1.5056e-07)
(-3.92901e-09 3.23567e-07 -1.37561e-07)
(-9.74722e-09 3.20082e-07 -1.25338e-07)
(-1.45719e-08 3.175e-07 -1.14412e-07)
(-1.94825e-08 3.15813e-07 -1.04519e-07)
(-2.47771e-08 3.14188e-07 -9.51459e-08)
(-2.90417e-08 3.1261e-07 -8.70139e-08)
(-3.36381e-08 3.10456e-07 -7.89471e-08)
(-3.82689e-08 3.07336e-07 -7.12998e-08)
(-4.28879e-08 3.039e-07 -6.40817e-08)
(-4.76582e-08 3.00388e-07 -5.7113e-08)
(-5.27566e-08 2.9704e-07 -5.01366e-08)
(-5.83451e-08 2.9331e-07 -4.34405e-08)
(-6.35814e-08 2.88923e-07 -3.61024e-08)
(-6.78773e-08 2.84362e-07 -2.85186e-08)
(-7.10729e-08 2.80087e-07 -2.07229e-08)
(-7.48376e-08 2.75892e-07 -1.27084e-08)
(-7.98247e-08 2.71979e-07 -5.1389e-09)
(-8.52794e-08 2.68191e-07 1.51819e-09)
(1.30799e-09 3.30006e-07 -1.35165e-07)
(-5.01906e-09 3.25182e-07 -1.23518e-07)
(-9.59713e-09 3.21535e-07 -1.12861e-07)
(-1.47404e-08 3.18493e-07 -1.03387e-07)
(-1.98954e-08 3.15636e-07 -9.46386e-08)
(-2.47718e-08 3.13136e-07 -8.65073e-08)
(-2.95387e-08 3.10424e-07 -7.90559e-08)
(-3.40336e-08 3.07276e-07 -7.20071e-08)
(-3.82914e-08 3.03665e-07 -6.5137e-08)
(-4.23551e-08 2.99987e-07 -5.8584e-08)
(-4.59956e-08 2.9629e-07 -5.22351e-08)
(-4.90845e-08 2.9299e-07 -4.58798e-08)
(-5.23504e-08 2.90089e-07 -3.94201e-08)
(-5.66423e-08 2.87179e-07 -3.3173e-08)
(-6.11009e-08 2.8374e-07 -2.6511e-08)
(-6.55892e-08 2.7989e-07 -1.89381e-08)
(-6.96709e-08 2.75836e-07 -1.15233e-08)
(-7.32495e-08 2.72539e-07 -4.83841e-09)
(-7.72298e-08 2.69868e-07 1.51242e-09)
(7.46796e-09 3.40012e-07 -1.43012e-07)
(1.56143e-09 3.34471e-07 -1.29746e-07)
(-4.60519e-09 3.30128e-07 -1.17357e-07)
(-9.37519e-09 3.26794e-07 -1.06615e-07)
(-1.38377e-08 3.24119e-07 -9.66411e-08)
(-1.91186e-08 3.21313e-07 -8.73937e-08)
(-2.38252e-08 3.18579e-07 -7.90531e-08)
(-2.84331e-08 3.15282e-07 -7.11563e-08)
(-3.29414e-08 3.11462e-07 -6.36575e-08)
(-3.74041e-08 3.07498e-07 -5.6595e-08)
(-4.20558e-08 3.03388e-07 -4.98322e-08)
(-4.70278e-08 2.99366e-07 -4.31297e-08)
(-5.25881e-08 2.95688e-07 -3.63964e-08)
(-5.82757e-08 2.92016e-07 -2.93134e-08)
(-6.34422e-08 2.8807e-07 -2.13935e-08)
(-6.78787e-08 2.84421e-07 -1.30361e-08)
(-7.1321e-08 2.81552e-07 -5.55938e-09)
(-7.54717e-08 2.78524e-07 1.27589e-09)
(-8.08502e-08 2.7523e-07 7.64884e-09)