/*--------------------------------*- C++ -*----------------------------------*\
| =========                 |                                                 |
| \\      /  F ield         | foam-extend: Open Source CFD                    |
|  \\    /   O peration     | Version:     3.1                                |
|   \\  /    A nd           | Web:         http://www.extend-project.de       |
|    \\/     M anipulation  |                                                 |
\*---------------------------------------------------------------------------*/
FoamFile
{
    version     2.0;
    format      ascii;
    class       volScalarField;
    location    "172800";
    object      epsilonHyd;
}
// * * * * * * * * * * * * * * * * * * * * * * * * * * * * * * * * * * * * * //

dimensions      [0 0 0 0 0 0 0];

internalField   nonuniform List<scalar> 
21211
(
0.0893279
0.0892948
0.0894752
0.0899042
0.0904041
0.0924757
0.09659
0.10351
0.116489
0.100944
0.100895
0.101038
0.101631
0.102531
0.104604
0.108864
0.118359
0.137542
0.0918203
0.0917945
0.0919854
0.0924358
0.0930401
0.095192
0.0995197
0.106309
0.121035
0.100773
0.100716
0.10089
0.101492
0.102451
0.104658
0.109297
0.119698
0.140292
0.0913996
0.0913759
0.0915754
0.0920614
0.0926676
0.0948694
0.099302
0.107257
0.12225
0.102547
0.102465
0.102644
0.103289
0.104295
0.106581
0.111346
0.121767
0.142743
0.0959703
0.0959703
0.0961802
0.0966642
0.0973046
0.0995943
0.104154
0.110272
0.125854
0.108008
0.107932
0.108127
0.108705
0.109764
0.112167
0.11727
0.128337
0.149876
0.0940042
0.0940345
0.0942655
0.0947706
0.0954311
0.0977793
0.102509
0.111491
0.128037
0.108252
0.108145
0.108372
0.108899
0.110021
0.11253
0.117768
0.129233
0.151374
0.103293
0.103354
0.10359
0.104109
0.104812
0.107229
0.111892
0.11782
0.133718
0.109709
0.10962
0.109853
0.110407
0.111587
0.114206
0.119817
0.132167
0.155399
0.0839223
0.0840267
0.0842762
0.0848214
0.0859793
0.0875859
0.0926417
0.101836
0.117068
0.112781
0.112713
0.112966
0.113547
0.114811
0.117509
0.123288
0.135758
0.159437
0.108025
0.10816
0.108442
0.109003
0.110166
0.112093
0.116835
0.122411
0.137086
0.117873
0.117828
0.118082
0.118688
0.120003
0.12283
0.128911
0.142013
0.165677
0.0913325
0.0914894
0.0907783
0.0914072
0.092587
0.0950594
0.100011
0.109375
0.123935
0.123808
0.123817
0.124038
0.124645
0.125993
0.128944
0.135234
0.148612
0.173302
0.0954154
0.095613
0.0947999
0.0954126
0.0966228
0.0991563
0.104106
0.107988
0.120029
0.127208
0.127259
0.127531
0.128184
0.129612
0.132739
0.139463
0.153291
0.176571
0.0944182
0.0945341
0.0947768
0.095308
0.0966001
0.099595
0.138628
0.113051
0.127334
0.130806
0.130935
0.131254
0.131973
0.133566
0.136963
0.14412
0.159666
0.183072
0.0926751
0.0928047
0.0930714
0.0936506
0.0948484
0.0969059
0.094602
0.105015
0.107947
0.136745
0.136832
0.137147
0.137875
0.139449
0.142909
0.150102
0.165482
0.190169
0.100447
0.100501
0.100751
0.101326
0.10256
0.105185
0.109914
0.116302
0.12384
0.13537
0.135508
0.135865
0.136689
0.138481
0.142345
0.150538
0.166297
0.190927
0.104259
0.104316
0.104597
0.105228
0.106544
0.109146
0.11382
0.120411
0.126735
0.13801
0.138112
0.13851
0.139417
0.141356
0.145434
0.153849
0.169939
0.19412
0.112263
0.112325
0.112627
0.113297
0.114666
0.117336
0.122065
0.12873
0.136293
0.139163
0.139272
0.139702
0.140672
0.142718
0.14696
0.155581
0.171877
0.19722
0.104163
0.104234
0.104562
0.105284
0.106747
0.109558
0.114402
0.120671
0.128016
0.14094
0.141077
0.141537
0.142566
0.144716
0.149132
0.15803
0.174697
0.200475
0.112617
0.112678
0.113014
0.113751
0.115228
0.118019
0.122698
0.128486
0.133368
0.139589
0.13973
0.140215
0.141292
0.143523
0.148057
0.157048
0.173351
0.19573
0.112047
0.112113
0.112459
0.113214
0.114714
0.117518
0.122121
0.127391
0.12841
0.139929
0.140083
0.140583
0.141688
0.143962
0.148555
0.157624
0.174078
0.196849
0.121444
0.12149
0.12183
0.122571
0.124033
0.12674
0.131149
0.136387
0.140584
0.133581
0.13373
0.134236
0.135346
0.137613
0.142156
0.151068
0.167288
0.189619
0.105831
0.105795
0.105969
0.106328
0.107208
0.109165
0.112864
0.121278
0.135203
0.0985432
0.0985549
0.0988806
0.0992564
0.097911
0.102663
0.105862
0.114497
0.130078
0.0891764
0.0891665
0.0920795
0.0918024
0.0901849
0.09255
0.0964955
0.102984
0.110349
0.0942817
0.0944557
0.0964688
0.0970757
0.0975696
0.0974498
0.100386
0.109751
0.11616
0.0993336
0.0992821
0.0994313
0.0996746
0.100333
0.101868
0.104586
0.110565
0.117116
0.0882983
0.0882874
0.0885504
0.0888686
0.0895013
0.090869
0.0936781
0.0997494
0.105833
0.0899837
0.0900027
0.0902025
0.0905004
0.091069
0.0923021
0.0948345
0.100045
0.1013
0.0900764
0.0900938
0.0902062
0.0904989
0.09107
0.0922393
0.0944924
0.0989478
0.100529
0.083983
0.0840185
0.0841486
0.0844793
0.0848615
0.0860204
0.0883817
0.0927516
0.0922566
0.0917392
0.091783
0.0919143
0.0921775
0.0926845
0.0938634
0.0961326
0.100415
0.101235
0.07508
0.0751496
0.0752773
0.0755549
0.0761621
0.0769534
0.0794539
0.0835924
0.084778
0.0898267
0.0898888
0.0900269
0.0903282
0.090951
0.0921009
0.0946257
0.0991592
0.103701
0.0919879
0.0920558
0.0921783
0.0924501
0.0930295
0.0943045
0.0965757
0.1002
0.105532
0.0974762
0.0975281
0.0976595
0.0979484
0.0985422
0.0997262
0.101921
0.105412
0.11129
0.100258
0.100318
0.100462
0.100774
0.101405
0.102643
0.104904
0.108435
0.113573
0.101284
0.101355
0.101512
0.101848
0.102522
0.103826
0.106188
0.109981
0.117431
0.103267
0.103349
0.103515
0.103866
0.104562
0.105893
0.108258
0.11194
0.118581
0.0920589
0.0921511
0.092326
0.0926941
0.0934221
0.0948134
0.0972992
0.101217
0.10857
0.0968783
0.0969744
0.0971472
0.0975068
0.09821
0.0995349
0.101855
0.105434
0.112236
0.100482
0.100434
0.100582
0.100993
0.101775
0.103741
0.107821
0.116406
0.135718
0.0899649
0.0899326
0.0901285
0.0903999
0.0906614
0.0931265
0.0969453
0.103268
0.121522
0.0950623
0.0950903
0.0953579
0.096038
0.0968214
0.0985006
0.101708
0.108985
0.125528
0.0873316
0.0872977
0.0872033
0.087483
0.0882337
0.0901098
0.0934162
0.0997113
0.116383
0.0893871
0.0893628
0.0894852
0.0896584
0.0903189
0.091745
0.0945853
0.0999152
0.115141
0.084878
0.0848539
0.0850043
0.0852955
0.08594
0.0873315
0.0902533
0.0966781
0.111986
0.0836462
0.0836281
0.0837596
0.0840581
0.0846725
0.0859514
0.0884954
0.0937083
0.107128
0.0869894
0.0869697
0.087091
0.0873632
0.0879437
0.0891397
0.0916619
0.0969716
0.109937
0.0873814
0.0873929
0.0875215
0.087813
0.0884025
0.0896448
0.0921582
0.0974239
0.108642
0.0876261
0.0876306
0.0877606
0.0880538
0.0886657
0.0899579
0.0927573
0.0985298
0.11003
0.0915957
0.0916659
0.091816
0.0921502
0.0928617
0.0943566
0.0974105
0.103861
0.114616
0.09479
0.0948478
0.0950068
0.0953687
0.0961437
0.0978063
0.101439
0.109237
0.121406
0.095334
0.0954446
0.0956276
0.096037
0.0969043
0.0987313
0.102584
0.110452
0.122087
0.0982373
0.0983291
0.0985264
0.0989642
0.0998755
0.101749
0.105609
0.113287
0.124725
0.0988579
0.0989668
0.099182
0.099652
0.100618
0.102579
0.106575
0.114446
0.126339
0.0985588
0.0986809
0.0989142
0.0994184
0.100446
0.102513
0.106678
0.114827
0.127683
0.0948178
0.0949523
0.0952003
0.0957322
0.0968066
0.0989439
0.103171
0.111234
0.123973
0.0949559
0.095095
0.0953514
0.0958974
0.0969934
0.0991639
0.103449
0.111537
0.123375
0.089269
0.0894122
0.0896702
0.0902152
0.0912978
0.0934144
0.0975417
0.105362
0.11746
0.0693576
0.0665153
0.0633874
0.0624207
0.0568116
0.0561456
0.0528518
0.0510774
0.0510571
0.0498869
0.04838
0.0455499
0.0449416
0.0484062
0.0507511
0.0537219
0.0555101
0.0537867
0.0509359
0.065334
0.0653956
0.0619568
0.0607573
0.0568683
0.056073
0.0532533
0.0512669
0.0484173
0.0475727
0.0441929
0.0420116
0.0425558
0.050066
0.0540265
0.0558699
0.051679
0.0492795
0.0498429
0.0652994
0.0633989
0.0590119
0.0590475
0.0572348
0.0555516
0.0526082
0.0507211
0.0506455
0.0483034
0.0466393
0.0465508
0.0456935
0.047436
0.0515212
0.052224
0.0508909
0.0508554
0.0505228
0.0656294
0.0610506
0.0566067
0.0563722
0.0553087
0.0525879
0.0516262
0.0486914
0.0484578
0.0457351
0.0442497
0.0412756
0.0406965
0.044481
0.052166
0.0529381
0.0528835
0.0491983
0.0474606
0.0593159
0.0588103
0.0587016
0.0564903
0.0532948
0.054221
0.0522683
0.0519482
0.0490248
0.0498388
0.0467029
0.04591
0.0470571
0.0477621
0.048622
0.0492284
0.0479593
0.0473866
0.0485346
0.0628035
0.0596127
0.0525098
0.0497458
0.0510176
0.0508094
0.050082
0.0505925
0.0470684
0.0529644
0.0435082
0.0435067
0.0406965
0.0429447
0.0442218
0.0483416
0.0499126
0.0502506
0.0477946
0.0600949
0.0555749
0.0548686
0.0567086
0.0531907
0.0505189
0.0522367
0.0494653
0.0505155
0.0474058
0.047939
0.0464724
0.0467064
0.0479161
0.0475666
0.0380804
0.0462088
0.0460926
0.0465671
0.0568042
0.0565963
0.0531282
0.0486271
0.0474865
0.0495124
0.0497222
0.0517553
0.0518548
0.0465027
0.0448894
0.0419294
0.0390714
0.0415225
0.0405872
0.0410098
0.0448606
0.0471591
0.0494425
0.0598071
0.0587675
0.0516866
0.0500863
0.0558686
0.0497147
0.0463997
0.048291
0.0465244
0.0485901
0.047858
0.051099
0.0473216
0.0463695
0.0432072
0.0438561
0.0369358
0.0439354
0.0450648
0.0544274
0.052866
0.051931
0.0488822
0.0532585
0.0526321
0.0523177
0.0497515
0.0494758
0.0526967
0.046377
0.0557504
0.0432883
0.0485341
0.0399865
0.0355017
0.0392568
0.0433866
0.048218
0.0588931
0.0593345
0.055355
0.0492644
0.0496114
0.0522542
0.0439031
0.0440754
0.0467906
0.0453823
0.0486911
0.0504413
0.0480818
0.0421817
0.0382125
0.0422485
0.0441197
0.0426967
0.0448526
0.055601
0.0542672
0.0549963
0.0543137
0.052104
0.0489149
0.0452803
0.0511011
0.0437103
0.0447806
0.0505258
0.047682
0.0505354
0.0431123
0.0349641
0.0382306
0.0377761
0.0388079
0.0428626
0.057591
0.0592943
0.0564851
0.0540563
0.0467677
0.0518874
0.0503282
0.0457307
0.038689
0.0462065
0.0487071
0.0483872
0.0457821
0.0442799
0.0398919
0.0383826
0.0447995
0.0438626
0.0458492
0.0620683
0.0585611
0.0545074
0.0520298
0.0487515
0.0655758
0.0460568
0.0446889
0.0461289
0.0435166
0.0429817
0.050254
0.0457547
0.0470499
0.0418064
0.0333672
0.0378304
0.0360848
0.0402829
0.0589886
0.0566958
0.0575206
0.0573717
0.0527707
0.0529852
0.0474763
0.0501476
0.0469629
0.0460154
0.0470138
0.0451894
0.043531
0.0482499
0.0426032
0.0435015
0.0447503
0.0490613
0.04985
0.060643
0.0575791
0.0550939
0.0506184
0.0457382
0.0462331
0.0647814
0.0418319
0.0439294
0.0438713
0.0420659
0.0413193
0.047713
0.0391836
0.0449121
0.0414849
0.040007
0.040475
0.0403645
0.0577659
0.0587578
0.0574504
0.0585386
0.0546153
0.0492632
0.0546055
0.049635
0.0511882
0.0463513
0.0411862
0.040285
0.0423443
0.0424004
0.0423379
0.0445317
0.0485033
0.0508953
0.0534548
0.0587388
0.0563919
0.0519782
0.0713312
0.0476829
0.0458278
0.0433471
0.0617832
0.0406428
0.0423316
0.0384285
0.0304774
0.040584
0.0433588
0.0436174
0.0405033
0.0440578
0.0438798
0.0452739
0.0600256
0.0562046
0.0555834
0.0558596
0.0576362
0.0535831
0.0520332
0.0487488
0.047164
0.0461236
0.0448338
0.0394304
0.0433356
0.0439741
0.0446965
0.046636
0.0493614
0.0510394
0.048699
0.057703
0.0556483
0.0509822
0.0449077
0.0670237
0.0468793
0.0466255
0.0417797
0.0586772
0.039125
0.0491773
0.0395695
0.0391908
0.0429589
0.0418078
0.0448335
0.045721
0.047568
0.0455803
0.05709
0.0541263
0.0529238
0.0582482
0.0548162
0.0552258
0.0541349
0.0506321
0.0426981
0.0553706
0.0435603
0.0443841
0.041355
0.0486793
0.0471069
0.0475154
0.0483472
0.0476345
0.0476043
0.0581093
0.0542503
0.0489
0.0659562
0.0479227
0.0508917
0.0447117
0.0441098
0.0315708
0.055563
0.0379028
0.0367285
0.0385289
0.0413908
0.044374
0.0454896
0.0472598
0.0467046
0.0447836
0.0527895
0.0513955
0.0510141
0.0523765
0.0551288
0.0542813
0.0537885
0.0498639
0.0396214
0.0415091
0.0574417
0.0453282
0.0431872
0.0477786
0.0489032
0.0473358
0.0475847
0.0469193
0.0462909
0.0571431
0.0541031
0.0510451
0.0499154
0.0506064
0.0457715
0.0599241
0.0419815
0.0486723
0.031591
0.0538107
0.0387013
0.0406193
0.0434671
0.0431911
0.0449029
0.0460678
0.0448335
0.0457769
0.0539788
0.0524366
0.0514855
0.0527224
0.0519812
0.0521199
0.0468174
0.0485931
0.0460581
0.0385018
0.0409357
0.0421154
0.0467659
0.0478495
0.0460433
0.0482677
0.048043
0.0492489
0.0477954
0.0594428
0.0548229
0.0542045
0.0535596
0.0474034
0.0598964
0.0267777
0.054818
0.0305716
0.0368429
0.0368682
0.0420038
0.0403434
0.0458258
0.043176
0.0453904
0.0450234
0.046545
0.0457818
0.058461
0.0566292
0.0555292
0.0528966
0.0487751
0.0422154
0.0463962
0.0440388
0.046294
0.0453179
0.040798
0.0449035
0.044427
0.0512943
0.0475985
0.0465029
0.0505337
0.0500903
0.0503967
0.0618013
0.0586639
0.0574067
0.0541323
0.0608862
0.0222205
0.0559484
0.0266402
0.0515542
0.036001
0.0365316
0.0457452
0.0418543
0.0459757
0.0459531
0.0452014
0.048616
0.0477188
0.0502207
0.0627994
0.0627505
0.0588228
0.0504594
0.0372475
0.0410927
0.0395151
0.0447921
0.0435272
0.0454326
0.0477002
0.0474755
0.0438965
0.0489005
0.0539645
0.0507907
0.0495859
0.0541191
0.0527863
0.0639734
0.062688
0.0576176
0.0566732
0.0188408
0.0584568
0.0219391
0.0511469
0.0326147
0.0419049
0.0408949
0.0391662
0.0443696
0.047366
0.0495899
0.0474066
0.0495151
0.0536738
0.0522486
0.0685501
0.0645919
0.0598721
0.0576282
0.0676443
0.0320971
0.0396673
0.0409162
0.0454803
0.0472513
0.0487789
0.050551
0.0486254
0.0482875
0.0501054
0.0544043
0.0556889
0.0558113
0.0581446
0.0681389
0.0631284
0.0568971
0.0758435
0.057467
0.0213914
0.0532484
0.029142
0.0440699
0.0451348
0.044836
0.0450922
0.046962
0.0519244
0.0513588
0.0517178
0.051893
0.0548807
0.0581451
0.0683782
0.0628748
0.0593701
0.0351037
0.0553611
0.0686055
0.0364574
0.0429288
0.0458083
0.0501795
0.0518027
0.0514985
0.0527971
0.0517771
0.0503882
0.053385
0.0598309
0.0590778
0.059088
0.0658598
0.0628918
0.0572721
0.0318632
0.0766568
0.0567077
0.0251232
0.0484498
0.0372223
0.0442914
0.0486976
0.0493754
0.0498705
0.055205
0.0547634
0.0582147
0.0564587
0.0559588
0.0576995
0.0655725
0.0587436
0.0580011
0.0586455
0.0556202
0.0564914
0.045492
0.046456
0.047554
0.05298
0.0537881
0.0520719
0.0506502
0.0581342
0.0596385
0.0566107
0.0592038
0.0644944
0.0596108
0.0639138
0.0611926
0.0583338
0.0548625
0.0446226
0.0774938
0.0437774
0.0492336
0.0463938
0.0508611
0.0504485
0.0526599
0.0550113
0.0591394
0.0585389
0.0606818
0.0635399
0.0593787
0.060618
0.0620326
0.0864329
0.0581201
0.058187
0.0620482
0.0555721
0.0592417
0.0463025
0.0511666
0.0540503
0.0544015
0.0546648
0.0543473
0.0611968
0.0627826
0.0632418
0.0620856
0.0631521
0.0658836
0.0633387
0.066831
0.0588771
0.0540528
0.0764502
0.0409525
0.0850259
0.0429981
0.0537212
0.0523532
0.0553722
0.057261
0.0594014
0.0649592
0.0638353
0.0626222
0.0662721
0.0676276
0.0628184
0.159119
0.158069
0.145453
0.139979
0.125571
0.112041
0.108142
0.0970977
0.0891122
0.0842808
0.0854233
0.083068
0.0794782
0.075708
0.0757421
0.0702373
0.068478
0.068046
0.0705755
0.134944
0.167729
0.157036
0.156947
0.147435
0.131739
0.12916
0.120399
0.1092
0.102709
0.100432
0.0944759
0.0871138
0.0816427
0.0758896
0.0700653
0.0710618
0.0712905
0.0680336
0.171029
0.159388
0.158572
0.148115
0.139823
0.128579
0.124058
0.113278
0.105438
0.0948483
0.0925525
0.0893065
0.0831799
0.0784091
0.0716064
0.0651218
0.0629642
0.0665204
0.0664551
0.164519
0.172238
0.170613
0.165658
0.154029
0.15022
0.13804
0.1308
0.118851
0.108293
0.101886
0.0943608
0.0925195
0.0908437
0.079003
0.07646
0.0746031
0.0727168
0.0706276
0.163312
0.166648
0.166528
0.162076
0.15166
0.138725
0.131811
0.121831
0.109801
0.104144
0.096908
0.0916262
0.085897
0.082997
0.0737259
0.0666269
0.0690944
0.0676983
0.0673847
0.145665
0.178125
0.175415
0.172768
0.167507
0.15566
0.14644
0.13926
0.127113
0.11866
0.109837
0.103133
0.0991818
0.0904076
0.0805956
0.0753551
0.073769
0.0724515
0.0653612
0.188054
0.182727
0.176679
0.169212
0.153734
0.147093
0.134919
0.132077
0.122906
0.114495
0.102123
0.0945168
0.090869
0.083808
0.0726259
0.069534
0.0734325
0.067176
0.0629546
0.173846
0.185909
0.1856
0.182087
0.169229
0.164294
0.151934
0.142943
0.13336
0.128408
0.116458
0.10784
0.103083
0.0848956
0.083253
0.0802503
0.0803105
0.0741624
0.0606671
0.178082
0.178185
0.18042
0.170582
0.157435
0.156118
0.1475
0.138006
0.128727
0.119342
0.110341
0.0991876
0.0921045
0.0836832
0.0748574
0.076157
0.0691305
0.0615808
0.0610859
0.172242
0.191318
0.191189
0.183341
0.171739
0.167778
0.16104
0.149554
0.140191
0.12786
0.120931
0.114065
0.102356
0.092111
0.0860341
0.0842556
0.0769906
0.0647458
0.0592678
0.190921
0.177551
0.182563
0.165923
0.160402
0.158262
0.147
0.143936
0.134079
0.121912
0.113908
0.104599
0.0969039
0.0864479
0.0813507
0.0748064
0.065402
0.0610789
0.0588056
0.182803
0.185271
0.190013
0.182544
0.177395
0.171581
0.161645
0.154982
0.147235
0.135318
0.126816
0.115478
0.103814
0.0942556
0.0922904
0.0829784
0.0700185
0.062152
0.0570429
0.195538
0.196159
0.179619
0.181874
0.172479
0.165232
0.154861
0.147548
0.138893
0.131607
0.117142
0.108092
0.0968435
0.0886353
0.0815851
0.0692131
0.0647813
0.0606099
0.0591666
0.185156
0.203198
0.19782
0.192569
0.184935
0.177243
0.168549
0.159844
0.151321
0.143536
0.128888
0.118538
0.10162
0.0967628
0.096367
0.0784261
0.0666109
0.059307
0.0605304
0.187495
0.186689
0.185703
0.181344
0.165374
0.166397
0.153194
0.150033
0.141504
0.13321
0.122967
0.110809
0.0997541
0.0904743
0.0800257
0.0705234
0.0640463
0.0610492
0.0579678
0.185326
0.196305
0.198252
0.198133
0.191143
0.179409
0.165638
0.156605
0.152052
0.141969
0.132323
0.121098
0.106803
0.101131
0.0915344
0.0753052
0.0659668
0.0623695
0.0643401
0.184631
0.20556
0.195399
0.184384
0.172084
0.168756
0.155447
0.150987
0.142057
0.135725
0.123269
0.112283
0.0999427
0.0913955
0.0822791
0.0730198
0.065045
0.0633015
0.0604766
0.197347
0.21253
0.208866
0.197966
0.196728
0.187175
0.174234
0.163824
0.155385
0.144391
0.133776
0.126033
0.11073
0.100825
0.0896262
0.0764027
0.0666239
0.0675568
0.0640402
0.191716
0.184734
0.179155
0.182838
0.172263
0.166181
0.162348
0.156678
0.145343
0.13514
0.123013
0.115722
0.102179
0.0902406
0.0855261
0.0754197
0.0676252
0.0630755
0.0605433
0.193425
0.211967
0.212099
0.199545
0.194013
0.187034
0.178912
0.169253
0.160176
0.145226
0.129234
0.125145
0.113339
0.0983442
0.0890061
0.0782822
0.0754466
0.0696919
0.0618863
0.214421
0.19405
0.203565
0.187683
0.173917
0.172602
0.15828
0.149884
0.148301
0.140105
0.119695
0.117237
0.10208
0.0932884
0.0855512
0.0776553
0.0668746
0.0604487
0.0576654
0.205389
0.209076
0.220617
0.207168
0.20342
0.196088
0.181067
0.167736
0.161855
0.15107
0.130965
0.122654
0.115884
0.102681
0.091221
0.0853113
0.0788431
0.0699054
0.0616045
0.204972
0.184454
0.181848
0.182053
0.170284
0.169553
0.155323
0.1567
0.147005
0.139138
0.124643
0.114198
0.104767
0.095023
0.0831612
0.0753016
0.0671002
0.0606403
0.0554984
0.206455
0.217329
0.213153
0.211959
0.205755
0.193947
0.182258
0.174765
0.15969
0.151643
0.134246
0.122808
0.115771
0.107538
0.0925087
0.0850538
0.0791247
0.0707381
0.0626761
0.233324
0.211727
0.186495
0.190838
0.186305
0.176578
0.164025
0.151912
0.143926
0.134161
0.124782
0.114811
0.100397
0.0957451
0.0859805
0.0736073
0.0701341
0.0639727
0.0546267
0.211732
0.233379
0.21587
0.211898
0.209437
0.204424
0.192745
0.169074
0.162283
0.147045
0.135671
0.127248
0.11337
0.105179
0.0954286
0.0843677
0.0771955
0.0722814
0.0537267
0.231544
0.193395
0.188425
0.193831
0.168046
0.166461
0.16367
0.154572
0.14219
0.13456
0.122478
0.116922
0.100926
0.0958883
0.0899724
0.0754907
0.0730906
0.0667655
0.0597177
0.202964
0.223181
0.217708
0.220294
0.212471
0.201484
0.185847
0.176746
0.159554
0.145492
0.12664
0.128184
0.107706
0.0984936
0.0952913
0.08445
0.0779892
0.0747473
0.0677955
0.210626
0.213389
0.203098
0.191475
0.186294
0.178289
0.161401
0.154543
0.152028
0.138227
0.124488
0.118602
0.103774
0.0939304
0.0931007
0.0843398
0.0768041
0.0719275
0.0667933
0.215767
0.230665
0.230789
0.223484
0.213139
0.203028
0.188992
0.173882
0.160314
0.151192
0.130915
0.127279
0.117018
0.0966518
0.0947781
0.0908937
0.0784983
0.072349
0.0685023
0.246113
0.216984
0.194296
0.196137
0.180735
0.176669
0.168127
0.164268
0.156295
0.139087
0.124838
0.11735
0.107429
0.0973291
0.0926738
0.091576
0.0822382
0.0760817
0.0713656
0.221057
0.240186
0.222494
0.217038
0.216153
0.202118
0.176618
0.175604
0.163171
0.146442
0.137182
0.127416
0.12076
0.106359
0.0924854
0.0961855
0.082921
0.074365
0.068902
0.242117
0.217383
0.212596
0.193671
0.184357
0.18344
0.174138
0.161993
0.153571
0.135258
0.127585
0.12132
0.109191
0.0995534
0.0941445
0.0938111
0.0805152
0.0765182
0.0731822
0.197392
0.22362
0.214881
0.213352
0.205277
0.19734
0.191757
0.17385
0.159733
0.149642
0.139773
0.128201
0.117064
0.112062
0.0968513
0.0959027
0.0898652
0.0761129
0.070469
0.181387
0.235948
0.211548
0.216301
0.202655
0.192623
0.179577
0.167477
0.159415
0.144197
0.133361
0.116748
0.117544
0.102164
0.0954904
0.0914121
0.0874593
0.0755024
0.0710641
0.195917
0.204166
0.231862
0.204417
0.192197
0.19544
0.186776
0.17369
0.164235
0.153075
0.139235
0.128401
0.114105
0.112865
0.101542
0.0899213
0.0916847
0.0779871
0.0679695
0.234396
0.233168
0.189245
0.204481
0.194927
0.193709
0.184075
0.170289
0.163222
0.151054
0.13737
0.125007
0.115428
0.107278
0.0963215
0.0864239
0.0868954
0.0770297
0.0676518
0.178012
0.192639
0.191714
0.202763
0.19828
0.197061
0.192647
0.173688
0.16819
0.148589
0.147708
0.127456
0.121853
0.109771
0.105457
0.08878
0.0854182
0.083114
0.068763
0.159139
0.145897
0.139474
0.115152
0.10551
0.100093
0.091382
0.0847406
0.0851397
0.078763
0.0750333
0.0778645
0.074164
0.0705454
0.0732426
0.0661312
0.0644339
0.0654812
0.0652862
0.115592
0.118404
0.0960207
0.092784
0.0921381
0.0782756
0.0749301
0.0859227
0.0790031
0.0744903
0.0737117
0.0752405
0.0704428
0.0722696
0.0724822
0.065953
0.0639362
0.0636215
0.0646625
0.126948
0.120381
0.0903621
0.0836555
0.0843995
0.0733134
0.0684003
0.0733261
0.070269
0.0691814
0.0684223
0.0687544
0.0681885
0.0681421
0.0664129
0.0615503
0.0614259
0.0623748
0.0660389
0.130684
0.106523
0.10085
0.0667761
0.0613083
0.060723
0.0580531
0.0687382
0.0677088
0.0631368
0.0643372
0.0659743
0.0642546
0.0647466
0.0658396
0.0597488
0.0573159
0.058084
0.064085
0.100175
0.0877931
0.086849
0.0670661
0.0665633
0.0632263
0.0606026
0.0616447
0.0641068
0.0600617
0.0622082
0.0626887
0.0621558
0.0632922
0.0608983
0.0587252
0.0563286
0.0574813
0.0621787
0.0904181
0.0777143
0.0609187
0.0502813
0.0423232
0.0461782
0.0557548
0.0557629
0.0593895
0.0585092
0.0546919
0.0572334
0.0596999
0.0592653
0.0567071
0.0570988
0.0569998
0.0570305
0.0582637
0.108763
0.0593314
0.0494226
0.0372088
0.0455453
0.0481629
0.0480116
0.0532753
0.0573444
0.0543039
0.0543353
0.0551451
0.0575413
0.0568243
0.0560493
0.0557186
0.0531403
0.0545412
0.0560367
0.0539624
0.0549327
0.030745
0.0469586
0.0348677
0.0421377
0.0472944
0.0481592
0.0491713
0.0524781
0.0512691
0.0528344
0.0566771
0.0573711
0.0535852
0.0539292
0.0512829
0.055898
0.0516588
0.106266
0.0778793
0.0469939
0.0457148
0.0444137
0.0493343
0.0381689
0.0456623
0.0510454
0.0483339
0.050473
0.0522699
0.055103
0.0574852
0.0562949
0.0517995
0.0497761
0.0574659
0.0517377
0.0909948
0.0536352
0.0458788
0.0490628
0.0388371
0.0388682
0.0473882
0.0438393
0.0487858
0.048995
0.0502932
0.0524323
0.0546593
0.0561599
0.0580726
0.0498281
0.0498726
0.0548926
0.0501733
0.107189
0.0818285
0.0664588
0.0581385
0.0482251
0.0512002
0.0521304
0.0448589
0.0514763
0.0485328
0.0521176
0.0549701
0.059496
0.0562678
0.0606012
0.0542358
0.0475349
0.0498151
0.0489101
0.117747
0.104914
0.0646046
0.0606014
0.0687271
0.0537377
0.0527434
0.0525089
0.0548893
0.0573115
0.0591802
0.0584496
0.065385
0.0582694
0.062788
0.0572107
0.05072
0.0488402
0.0466672
0.142923
0.117452
0.0913012
0.0857093
0.0757638
0.0704715
0.0655743
0.0635481
0.0657813
0.0670892
0.0643681
0.0621599
0.0658871
0.0592301
0.0569492
0.0593347
0.0530347
0.0503623
0.0476127
0.128376
0.130947
0.119462
0.0860607
0.080666
0.0782499
0.0752643
0.0725953
0.0713778
0.0707122
0.0667398
0.0656949
0.0586914
0.061465
0.0577452
0.0551254
0.0548228
0.051992
0.0499386
0.140319
0.142237
0.11802
0.106675
0.0944647
0.0809441
0.0758489
0.0724177
0.0730367
0.0677452
0.0634135
0.0628573
0.0588334
0.0598557
0.0557223
0.0554083
0.0531795
0.0538659
0.0524139
0.162295
0.135017
0.124594
0.102987
0.102199
0.0787458
0.0764383
0.0727086
0.0701637
0.0676308
0.0663206
0.0611976
0.0575137
0.0598844
0.0573692
0.0568779
0.0562022
0.0535236
0.0555314
0.145795
0.149521
0.129236
0.103728
0.0919889
0.0787741
0.072291
0.0692163
0.0667377
0.066264
0.065481
0.0652183
0.0598224
0.0575522
0.0603051
0.0581949
0.0600135
0.0582519
0.056881
0.160953
0.12534
0.114799
0.107585
0.0951397
0.0793926
0.0741439
0.0712076
0.0696819
0.0686892
0.0683472
0.0661544
0.0640226
0.0615045
0.062183
0.0614718
0.0603421
0.0605872
0.0570807
0.150884
0.137603
0.113407
0.100693
0.0927231
0.0800086
0.07647
0.0717432
0.0702016
0.0690062
0.0683384
0.0671617
0.0641429
0.0630001
0.059623
0.0611615
0.0579015
0.0573132
0.0560413
0.142158
0.147449
0.144678
0.140475
0.124453
0.120368
0.11014
0.0982828
0.0933536
0.0904761
0.0876999
0.0857519
0.0833613
0.0819267
0.0782321
0.0729357
0.0704719
0.0687
0.0673285
0.1129
0.135366
0.109732
0.115566
0.111653
0.0915163
0.0951843
0.0871734
0.0870421
0.0821106
0.0809387
0.0791545
0.0776237
0.0761908
0.0720456
0.0633431
0.0635001
0.0642438
0.0649552
0.114239
0.112946
0.110629
0.104474
0.102699
0.0866795
0.0876032
0.0779003
0.076475
0.0727074
0.072263
0.0714648
0.0700521
0.0716332
0.0702534
0.0616662
0.0628125
0.0643666
0.0621125
0.0895203
0.123473
0.105164
0.0837902
0.0857062
0.0685544
0.0649465
0.0670617
0.0664356
0.0676348
0.0662461
0.0672921
0.0669303
0.0701584
0.0634518
0.060194
0.0627236
0.0619274
0.0634463
0.0635156
0.105033
0.0843593
0.0811153
0.0778353
0.0631818
0.0661887
0.0588559
0.0599712
0.0602662
0.0609106
0.0590141
0.0627771
0.0644394
0.0602847
0.0601668
0.0587755
0.0607469
0.0622561
0.116462
0.0755244
0.0704193
0.0692507
0.0535309
0.0514425
0.052529
0.0513297
0.0521121
0.0571322
0.0564505
0.0564691
0.0575779
0.0617398
0.0603016
0.0539623
0.0565502
0.0591739
0.0597271
0.0551917
0.0593847
0.0665976
0.045219
0.0449099
0.0443942
0.0441897
0.0428642
0.0481832
0.0507498
0.0503248
0.0508829
0.0548738
0.0605204
0.055097
0.0538384
0.0566209
0.057968
0.0572961
0.0565498
0.0786035
0.0453409
0.0489069
0.0418642
0.0374327
0.0345494
0.0406509
0.040826
0.0492181
0.0502627
0.050415
0.0564738
0.0609842
0.0569003
0.0558241
0.0557017
0.05865
0.0548685
0.0575065
0.0730757
0.0361016
0.0550205
0.0409817
0.0475613
0.0331438
0.0324003
0.042114
0.0457962
0.0491873
0.0510964
0.0562042
0.0618058
0.0616524
0.0593484
0.0546246
0.0567988
0.0515141
0.0665177
0.0842828
0.0500687
0.049771
0.0402582
0.0364419
0.0310206
0.0366057
0.0421618
0.0478737
0.0523015
0.0577443
0.0648456
0.0642361
0.0616953
0.0601855
0.0539085
0.0533068
0.0480945
0.0846495
0.0858099
0.0613151
0.0765483
0.050677
0.044635
0.0501177
0.041703
0.0512678
0.0568906
0.0595557
0.0623676
0.0714242
0.0661309
0.064049
0.060404
0.0514004
0.0509548
0.0457691
0.106952
0.0842691
0.0838234
0.0711368
0.0752953
0.0605085
0.0569865
0.0583835
0.0590454
0.0655132
0.0699388
0.0669321
0.0688149
0.0631602
0.0652512
0.060357
0.0517843
0.0527681
0.0464116
0.101316
0.115239
0.11018
0.0991985
0.0940977
0.0797007
0.0789391
0.0705169
0.0706436
0.0680873
0.0716429
0.0689989
0.063677
0.0625041
0.0583747
0.0557039
0.0513036
0.0525894
0.0500419
0.106193
0.122999
0.116183
0.10409
0.0955017
0.0864479
0.0771826
0.0727099
0.0743128
0.0723719
0.0656105
0.0661992
0.0613092
0.0580417
0.0567037
0.0542015
0.0502851
0.0504154
0.0525866
0.117383
0.137033
0.125585
0.109453
0.096868
0.0879324
0.0817799
0.0744312
0.0709004
0.0705385
0.0672106
0.0604569
0.0594393
0.0584319
0.0532266
0.0572045
0.0522031
0.0484663
0.0523547
0.123074
0.131399
0.119386
0.107487
0.0939446
0.0803434
0.074803
0.0695088
0.0660273
0.0639768
0.0660565
0.0638119
0.0573405
0.0582473
0.0533228
0.054824
0.0575831
0.050994
0.0510522
0.121981
0.11358
0.110553
0.0987158
0.090627
0.081964
0.071645
0.0667005
0.0651899
0.0630699
0.058688
0.0634263
0.0593835
0.0554635
0.0584247
0.0540798
0.0586996
0.0576922
0.051835
0.114641
0.126592
0.108041
0.0980146
0.0876519
0.0804377
0.0751159
0.0643821
0.0624892
0.0647385
0.0619936
0.0629528
0.0631484
0.0577334
0.0583162
0.0567492
0.0562034
0.0586053
0.0521895
0.109961
0.125589
0.110181
0.0924833
0.0903185
0.0763416
0.0725348
0.0668756
0.0574115
0.0617975
0.0628843
0.0613294
0.0615152
0.0592715
0.055938
0.0584394
0.0528926
0.0565868
0.0555699
0.144904
0.116142
0.103702
0.0967884
0.0871483
0.0750519
0.0726698
0.0686054
0.067864
0.0668609
0.0663874
0.0662237
0.0619943
0.0617465
0.0581857
0.060659
0.0575771
0.0565248
0.0560087
0.109589
0.118189
0.106571
0.0896831
0.0881176
0.0745
0.0716888
0.0659455
0.0572793
0.0610915
0.0627278
0.0611042
0.0607677
0.0590685
0.0554858
0.0586297
0.0527335
0.0556273
0.0545557
0.148065
0.11362
0.101815
0.0961082
0.0891925
0.0769304
0.0744923
0.0718869
0.0698488
0.0682817
0.0683498
0.0669957
0.0626998
0.0610399
0.0616724
0.0589178
0.05544
0.0555389
0.05155
0.119544
0.12018
0.100383
0.0950786
0.0889968
0.0771809
0.071347
0.0640126
0.0620774
0.0651621
0.0645251
0.064672
0.0625258
0.0574775
0.0582785
0.0560398
0.0538114
0.0570442
0.0510762
0.138379
0.115856
0.109503
0.0914002
0.0893336
0.0811577
0.0795628
0.0748154
0.0752803
0.0718203
0.0728409
0.0705905
0.0651225
0.061918
0.0627522
0.0576451
0.0569661
0.0546377
0.0513261
0.127508
0.119915
0.111263
0.101379
0.0970371
0.0871583
0.078516
0.0702669
0.0718803
0.0717428
0.0686887
0.071039
0.0653929
0.0614579
0.0637811
0.056345
0.0579245
0.0547266
0.0479067
0.142426
0.124866
0.100964
0.0982743
0.092403
0.0894118
0.0827152
0.0788865
0.0805875
0.0791579
0.0783626
0.0730789
0.0686501
0.0690947
0.0653599
0.0613591
0.0585636
0.0536151
0.0495447
0.134012
0.133328
0.130823
0.116396
0.106464
0.0915572
0.0858512
0.0808126
0.0782337
0.0749314
0.0781234
0.0743628
0.0704375
0.0697425
0.0625211
0.0608252
0.0603293
0.0537921
0.0503058
0.156884
0.135436
0.120876
0.100457
0.0901814
0.090445
0.0846309
0.0850136
0.0824981
0.0800235
0.0777178
0.0746096
0.0707821
0.0724364
0.0688151
0.0662849
0.0600147
0.0545912
0.0482093
0.145509
0.145408
0.1374
0.12474
0.112842
0.0988859
0.0939128
0.0830742
0.0791646
0.0788998
0.0786742
0.0758585
0.0725874
0.0722475
0.0667502
0.0672509
0.0604176
0.05524
0.050647
0.153768
0.139035
0.121168
0.109422
0.0927396
0.0930084
0.0888802
0.0865577
0.0831755
0.0820583