/*--------------------------------*- C++ -*----------------------------------*\
| =========                 |                                                 |
| \\      /  F ield         | foam-extend: Open Source CFD                    |
|  \\    /   O peration     | Version:     3.1                                |
|   \\  /    A nd           | Web:         http://www.extend-project.de       |
|    \\/     M anipulation  |                                                 |
\*---------------------------------------------------------------------------*/
FoamFile
{
    version     2.0;
    format      ascii;
    class       volSymmTensorField;
    location    "172800";
    object      epsilon;
}
// * * * * * * * * * * * * * * * * * * * * * * * * * * * * * * * * * * * * * //

dimensions      [0 0 0 0 0 0 0];

internalField   nonuniform List<symmTensor> 
21211
(
(0.180977 4.35177e-06 -0.034582 0.000872436 3.87236e-05 0.0861339)
(0.180986 -2.27222e-05 -0.0345737 0.000708595 -0.00029513 0.0861899)
(0.180994 -3.09234e-05 -0.0345936 0.00124769 -0.000767304 0.0861836)
(0.180884 -2.06514e-05 -0.0345559 0.00252689 -0.00166491 0.0863019)
(0.180935 -0.000216517 -0.0340481 0.00543634 -0.00379818 0.0848408)
(0.181049 -0.000578547 -0.0342189 0.0113317 -0.00845997 0.0850467)
(0.180823 -0.00105524 -0.03439 0.0235345 -0.0182034 0.085413)
(0.181782 -0.00260979 -0.0326823 0.0504296 -0.0346848 0.0783191)
(0.180137 -0.0037032 -0.0375802 0.125266 -0.0399509 0.0440624)
(0.16968 0.000229775 -0.0561451 0.000898874 -0.000137128 0.132254)
(0.169694 0.000268541 -0.0561433 0.000734782 0.00014882 0.132256)
(0.169583 0.000394702 -0.0560382 0.00124685 0.000582758 0.132284)
(0.169742 0.000700138 -0.0563205 0.00256786 0.00125835 0.132585)
(0.169496 0.000820488 -0.0561524 0.00559137 0.00292716 0.132504)
(0.169566 0.00137392 -0.0561262 0.0120956 0.00629397 0.132151)
(0.169124 0.00277864 -0.0556199 0.0266362 0.0135006 0.130832)
(0.169062 0.00567609 -0.0567399 0.0570526 0.0297903 0.128963)
(0.168403 0.013436 -0.0558651 0.106097 0.0835066 0.138128)
(0.187439 1.0565e-05 -0.0252012 0.000879673 2.75527e-05 0.0871427)
(0.187437 9.21007e-06 -0.0252056 0.000751997 -0.00031343 0.0871944)
(0.187429 2.59199e-05 -0.0252297 0.00134434 -0.000824802 0.0871825)
(0.187322 3.05409e-05 -0.0251808 0.00273315 -0.00182553 0.0872521)
(0.187398 -5.41966e-05 -0.0244313 0.00567912 -0.00401952 0.0860431)
(0.187329 -1.20245e-05 -0.0245864 0.0120457 -0.00888517 0.0862013)
(0.186837 -8.79052e-05 -0.0246333 0.025374 -0.0194339 0.0863477)
(0.186224 -0.000844948 -0.0205837 0.0536089 -0.0386995 0.0790941)
(0.185197 -0.00233126 -0.0237428 0.129736 -0.055123 0.0481711)
(0.182364 0.000177969 -0.0424489 0.000985313 -0.000145405 0.118971)
(0.182365 0.000207891 -0.0424439 0.00080274 0.000163292 0.118979)
(0.182277 0.000259568 -0.0423942 0.00138028 0.000642429 0.119014)
(0.182332 0.000417475 -0.0427652 0.00273798 0.00139487 0.119406)
(0.18223 0.000473326 -0.0426945 0.00591106 0.00321324 0.119211)
(0.182191 0.000821569 -0.0426001 0.012944 0.00681956 0.118838)
(0.181614 0.00148659 -0.042234 0.0286743 0.0146426 0.117602)
(0.181294 0.00325284 -0.0436027 0.0627091 0.031107 0.11509)
(0.180457 0.00748948 -0.0443991 0.120491 0.0785698 0.119929)
(0.196261 -5.99914e-05 -0.0123322 0.000909035 0.000105219 0.077029)
(0.196261 -4.0546e-05 -0.0123394 0.00078066 -0.000242074 0.077086)
(0.196257 7.48089e-07 -0.012358 0.00140109 -0.000790181 0.0770678)
(0.196133 5.84237e-05 -0.0122853 0.00285086 -0.00186271 0.0772004)
(0.196227 1.63828e-05 -0.0114178 0.0058642 -0.00413204 0.0759117)
(0.196222 0.000384329 -0.0115589 0.012357 -0.00925027 0.0760291)
(0.196003 0.000744755 -0.0117302 0.025742 -0.020168 0.0761605)
(0.197971 0.000727435 -0.00960974 0.053912 -0.0400159 0.0698885)
(0.197596 0.00011273 -0.00980965 0.130528 -0.0583404 0.0386243)
(0.193953 0.000200686 -0.0373046 0.00108999 -0.000122287 0.112597)
(0.19395 0.000208413 -0.0373018 0.000831295 0.000213121 0.112613)
(0.193789 0.000232045 -0.0372317 0.00145622 0.000705257 0.112686)
(0.193959 0.000357115 -0.0376645 0.00284826 0.00150702 0.11306)
(0.193887 0.000312916 -0.0376133 0.00616221 0.00339937 0.112837)
(0.193861 0.000466629 -0.0375245 0.0134319 0.00713016 0.112449)
(0.193394 0.000634002 -0.0371682 0.0294417 0.0150958 0.111201)
(0.193599 0.00109081 -0.0384094 0.063048 0.0320299 0.108654)
(0.192871 0.00190832 -0.0383948 0.122975 0.0801436 0.112383)
(0.20221 2.02038e-05 0.000444049 0.000855469 6.70721e-06 0.0848451)
(0.202213 5.08163e-05 0.000432148 0.000808049 -0.000353909 0.0848898)
(0.202215 0.00011541 0.000417934 0.00146235 -0.000900227 0.0848635)
(0.202084 0.000234711 0.000443752 0.00297874 -0.00199969 0.0849299)
(0.202077 0.000422307 0.00143387 0.00612542 -0.00440022 0.0837115)
(0.202076 0.00109165 0.00126527 0.0128786 -0.00968506 0.0838277)
(0.201586 0.00237127 0.00116418 0.0269776 -0.0212157 0.0838993)
(0.199033 0.00380738 0.00740428 0.0560261 -0.0437198 0.0757564)
(0.198762 0.00472424 0.00910816 0.13495 -0.0659691 0.043849)
(0.199969 0.000201579 -0.0286793 0.00112816 -0.000156901 0.122926)
(0.199974 0.000185908 -0.0286791 0.000877429 0.000192804 0.122944)
(0.199881 0.000143568 -0.0286854 0.0015121 0.000722134 0.122989)
(0.199897 0.000213054 -0.0292503 0.00302194 0.00152213 0.123197)
(0.199816 6.28633e-05 -0.0292149 0.00648353 0.00346392 0.122993)
(0.199806 -2.07312e-05 -0.0290896 0.0140836 0.00731073 0.122611)
(0.199489 -0.000326161 -0.0287572 0.0310176 0.0155162 0.121303)
(0.199637 -0.000874862 -0.0294908 0.0679787 0.0326239 0.117396)
(0.198015 -0.00365495 -0.0304113 0.131159 0.0785187 0.120453)
(0.201946 -0.000127278 0.024644 0.000795429 0.000153155 0.0792715)
(0.201952 -6.07441e-05 0.024619 0.000828192 -0.00021871 0.0793228)
(0.201958 5.32854e-05 0.0245925 0.00150197 -0.000802801 0.0793368)
(0.201868 0.000280955 0.0246039 0.00306106 -0.00197805 0.0793828)
(0.201707 0.000564211 0.0256629 0.00626591 -0.00451085 0.0783207)
(0.201741 0.00173275 0.0254615 0.0131729 -0.0100803 0.0784238)
(0.201638 0.00380356 0.0251659 0.0276125 -0.0221235 0.0782769)
(0.204235 0.00702096 0.0277947 0.0577115 -0.0449229 0.0725271)
(0.203362 0.0114854 0.0322613 0.140319 -0.071945 0.0404301)
(0.208725 0.000248893 -0.0100272 0.00124939 -8.7878e-05 0.114782)
(0.208722 0.000189476 -0.0100292 0.000903504 0.000295077 0.11481)
(0.20872 0.00013 -0.0100244 0.00159573 0.000788004 0.1148)
(0.208692 2.59647e-05 -0.010032 0.00318634 0.00170485 0.11482)
(0.208646 -0.000198492 -0.0100031 0.00681358 0.00368153 0.114603)
(0.208582 -0.000537946 -0.00986098 0.0148066 0.00767614 0.114201)
(0.207882 -0.00142935 -0.00947551 0.032417 0.0161514 0.113005)
(0.20842 -0.00374157 -0.0104338 0.0697191 0.032711 0.10956)
(0.208056 -0.0122655 -0.0106104 0.135311 0.0744895 0.110754)
(0.208501 2.91238e-05 0.0358861 0.000708973 -4.7762e-05 0.10067)
(0.208501 0.000110957 0.0358719 0.000850596 -0.000420095 0.100708)
(0.208499 0.000256822 0.0358549 0.00155307 -0.00100331 0.100719)
(0.208389 0.00055376 0.0358509 0.00316636 -0.00222159 0.100772)
(0.207553 0.00107286 0.037403 0.00646726 -0.0047726 0.100416)
(0.207907 0.00252977 0.0370342 0.0135072 -0.0105458 0.100272)
(0.207336 0.00558772 0.0368828 0.0280357 -0.0233953 0.100305)
(0.20034 0.0105064 0.0457986 0.0567347 -0.0494847 0.0963863)
(0.198254 0.0176993 0.0519275 0.136747 -0.0831751 0.0661526)
(0.219414 0.00025476 -3.33912e-05 0.00125206 -9.02945e-05 0.10846)
(0.219418 0.000177712 -3.83724e-05 0.000950662 0.00030737 0.108492)
(0.219414 8.03544e-05 -3.15768e-05 0.00165324 0.000823245 0.108491)
(0.219397 -9.02368e-05 -5.14022e-06 0.00336797 0.00178728 0.108457)
(0.219293 -0.000460144 6.38643e-05 0.00720821 0.00376896 0.108259)
(0.219213 -0.0011573 0.000187038 0.0156058 0.00783352 0.107799)
(0.218776 -0.00259148 0.000612485 0.0342323 0.0162472 0.106444)
(0.218779 -0.00522977 0.000736312 0.0750792 0.0330384 0.102642)
(0.218603 -0.0141478 0.000999275 0.144503 0.0731931 0.103091)
(0.212007 -0.000198674 0.057571 0.000610264 0.000294115 0.0391494)
(0.212018 -9.66943e-05 0.057537 0.000867156 -0.00012978 0.0391949)
(0.212013 8.26351e-05 0.057498 0.00159778 -0.000778391 0.0392173)
(0.212 0.000439693 0.0574615 0.0032379 -0.0021171 0.0392265)
(0.212525 0.0012241 0.0575214 0.00661896 -0.00510007 0.0387942)
(0.211554 0.00293098 0.058715 0.0138439 -0.0116876 0.0373598)
(0.211522 0.00655324 0.0581885 0.0287721 -0.0256228 0.0376305)
(0.214467 0.0121237 0.0607083 0.0606094 -0.052151 0.030431)
(0.211013 0.0168101 0.0708865 0.149192 -0.0806088 -0.00900204)
(0.230487 0.000203599 0.00241238 0.00119084 -9.29088e-05 0.106666)
(0.230481 7.69003e-05 0.00240302 0.000960345 0.00032559 0.106698)
(0.230464 -4.35981e-05 0.00239841 0.00173685 0.00085756 0.106696)
(0.23044 -0.000247782 0.00241232 0.00355178 0.0018606 0.10665)
(0.230386 -0.000652095 0.00239995 0.00751329 0.00386866 0.106534)
(0.230288 -0.00146171 0.00264977 0.0164376 0.00796465 0.105801)
(0.229636 -0.00327275 0.00313859 0.0360547 0.0167922 0.104173)
(0.229808 -0.0071185 0.00254395 0.0776208 0.0341774 0.0998454)
(0.229112 -0.0174025 0.00248289 0.146669 0.0772586 0.102529)
(0.20789 3.02231e-05 0.065834 0.000515631 -9.61183e-05 0.11567)
(0.207898 0.000153179 0.065814 0.000885943 -0.000480861 0.115696)
(0.208217 0.000380894 0.0656735 0.00165845 -0.00110978 0.11545)
(0.208253 0.000866249 0.0656349 0.00329393 -0.00239194 0.115461)
(0.208196 0.00187959 0.0655894 0.00676164 -0.00524096 0.11554)
(0.206887 0.00400769 0.067149 0.0139273 -0.0114904 0.115463)
(0.206392 0.00891179 0.0669983 0.0284784 -0.0254079 0.115635)
(0.197334 0.0174173 0.0753269 0.0578952 -0.0537938 0.112004)
(0.19221 0.026893 0.0890632 0.144834 -0.0867642 0.0742145)
(0.234914 0.000200287 0.0210923 0.00116321 -7.39926e-05 0.117541)
(0.23492 5.04156e-05 0.021084 0.00100636 0.000324485 0.117557)
(0.234926 -0.000135908 0.0210551 0.00182489 0.000839697 0.117495)
(0.234919 -0.000420573 0.0210562 0.00371308 0.00181239 0.117432)
(0.234886 -0.00101952 0.0211086 0.00785726 0.00374887 0.117265)
(0.234717 -0.00226262 0.0213169 0.0171391 0.00768107 0.116633)
(0.234315 -0.00491121 0.0218737 0.0374117 0.0159435 0.115006)
(0.234167 -0.0100421 0.0226556 0.0808982 0.0333777 0.110973)
(0.233637 -0.0244303 0.0213931 0.150079 0.0762182 0.113315)
(0.210604 -0.000235009 0.087562 0.000432236 0.000238987 0.0629616)
(0.210505 -3.94498e-05 0.0875455 0.000893355 -0.000291422 0.0630696)
(0.208839 -5.19434e-06 0.0891178 0.00171494 -0.00086384 0.0617813)
(0.208894 0.000675847 0.0889708 0.00326755 -0.00226479 0.0620601)
(0.208926 0.00181264 0.0888648 0.00668223 -0.00535472 0.0621524)
(0.209594 0.00431883 0.0889147 0.0137534 -0.0122241 0.0618307)
(0.209634 0.0097451 0.0886062 0.0285914 -0.0268618 0.0618084)
(0.213119 0.0188863 0.0912538 0.0606891 -0.0545863 0.0543174)
(0.205667 0.0278719 0.108467 0.155179 -0.0841612 0.0109598)
(0.250947 0.000185841 0.0172767 0.000923024 -5.83163e-05 0.119553)
(0.250939 2.07094e-05 0.0172889 0.000973457 0.000246997 0.119538)
(0.250936 -0.000164013 0.0174282 0.00190486 0.000709856 0.119274)
(0.250921 -0.000467355 0.0175032 0.00389242 0.00173839 0.119122)
(0.25087 -0.00106929 0.017586 0.00819335 0.00366359 0.118914)
(0.250726 -0.00227249 0.0177228 0.0177847 0.00753731 0.118322)
(0.250227 -0.0048554 0.018297 0.0389426 0.0157385 0.116532)
(0.250013 -0.0105482 0.0184387 0.0831993 0.032393 0.112623)
(0.249111 -0.0249889 0.0173974 0.154611 0.0720515 0.116186)
(0.201001 3.18989e-05 0.120222 0.000299254 -0.000134075 0.0849459)
(0.200897 0.000248652 0.12021 0.000931459 -0.000553532 0.0850104)
(0.199111 0.000384781 0.122456 0.00176392 -0.0012471 0.0835245)
(0.199107 0.00124809 0.122376 0.00341994 -0.00273054 0.0837106)
(0.199206 0.00266807 0.122247 0.00686966 -0.00593275 0.0837928)
(0.199166 0.00576117 0.12211 0.0141954 -0.0129779 0.084107)
(0.196904 0.0130085 0.120883 0.0297261 -0.028987 0.0856877)
(0.188777 0.0264708 0.131102 0.0605634 -0.0609586 0.0746233)
(0.175625 0.0347371 0.157102 0.163168 -0.0907691 0.0212937)
(0.255809 0.000201072 0.0381375 0.000869939 -0.000112898 0.124946)
(0.25581 5.65135e-05 0.0381282 0.00102609 0.000202374 0.124942)
(0.255787 -0.000183292 0.038132 0.00201222 0.00066593 0.124795)
(0.255769 -0.000590017 0.03819 0.00412135 0.00165297 0.124661)
(0.255719 -0.001412 0.038303 0.00866849 0.00353587 0.12445)
(0.255511 -0.00304458 0.0385393 0.0188365 0.00731304 0.123871)
(0.254777 -0.00655653 0.0394494 0.0413058 0.0154189 0.122307)
(0.25452 -0.0144543 0.0409622 0.0876065 0.03383 0.117745)
(0.254352 -0.0359305 0.0396554 0.152062 0.0792338 0.123297)
(0.176639 -0.000472515 0.133619 0.000611327 0.000344784 0.106004)
(0.176646 -0.000170792 0.133615 0.000939746 -0.00015843 0.106017)
(0.177033 0.000215415 0.13408 0.00161358 -0.000984463 0.105684)
(0.177007 0.00127058 0.134131 0.00326498 -0.00265228 0.105652)
(0.177157 0.00318449 0.133972 0.00694109 -0.00623535 0.105702)
(0.176541 0.00660904 0.135028 0.0178629 -0.0128829 0.104381)
(0.257255 0.0092295 0.0757646 0.0428466 -0.0167497 0.115782)
(0.179601 0.0276407 0.143423 0.0698431 -0.0601667 0.0897102)
(0.163248 0.0353113 0.167218 0.1739 -0.0800186 0.0448548)
(0.253603 5.43083e-05 0.0568178 0.000762769 -5.62494e-06 0.138053)
(0.253594 -9.45917e-05 0.0568321 0.00117186 0.00027068 0.138038)
(0.253605 -0.000311283 0.056764 0.00214746 0.00072817 0.138008)
(0.253569 -0.000726456 0.0567983 0.00444643 0.001585 0.137902)
(0.253446 -0.00171433 0.0569607 0.00961509 0.00347855 0.137638)
(0.253628 -0.00451489 0.0569387 0.0199407 0.00813469 0.13732)
(0.256915 -0.00792192 0.0520628 0.0366701 0.0121643 0.138777)
(0.252945 -0.0144515 0.0571696 0.0930484 0.0285521 0.133004)
(0.252965 -0.0375601 0.0548411 0.158783 0.0746891 0.137468)
(0.143645 -1.2007e-05 0.17377 0.000569128 -5.97963e-05 0.133812)
(0.143665 0.000353525 0.173743 0.000933032 -0.000558632 0.133816)
(0.143735 0.00090656 0.173724 0.0016534 -0.00138995 0.133826)
(0.14387 0.00203054 0.173638 0.00321506 -0.00306159 0.133867)
(0.144148 0.00447559 0.173447 0.00643354 -0.0067312 0.133964)
(0.145436 0.0117564 0.171978 0.0106695 -0.0156009 0.134612)
(0.10952 0.0239528 0.15484 0.0311614 -0.0349247 0.143125)
(0.135431 0.0394055 0.17817 0.0547803 -0.0707153 0.124834)
(0.0967459 0.0524872 0.230203 0.172619 -0.101472 0.0544756)
(0.253488 0.000124607 0.0704111 0.000991246 -4.95049e-05 0.155755)
(0.253489 -3.93393e-05 0.0704227 0.00126787 0.000221239 0.155737)
(0.253478 -0.000299789 0.0704614 0.00226794 0.000670599 0.155695)
(0.253428 -0.000795176 0.0705598 0.00459253 0.00152469 0.155603)
(0.253307 -0.00171214 0.070809 0.00969374 0.00317697 0.155346)
(0.252688 -0.00324967 0.0717532 0.0215719 0.00615902 0.154467)
(0.250159 -0.00809231 0.0769964 0.0486693 0.0147627 0.151479)
(0.249208 -0.0197523 0.0774872 0.0990195 0.0340954 0.14822)
(0.251249 -0.0502033 0.0716788 0.166491 0.0765022 0.152767)
(0.0923214 -0.000545994 0.16036 0.000804161 0.000188808 0.208215)
(0.0924331 0.000121845 0.160325 0.000844447 -0.000441116 0.208227)
(0.0925389 0.000996095 0.160265 0.00146567 -0.00142228 0.208249)
(0.0927831 0.00269247 0.160119 0.00289573 -0.00332214 0.208299)
(0.0933346 0.0062433 0.159764 0.0059168 -0.00723857 0.208429)
(0.0942742 0.0135457 0.158882 0.0125189 -0.0154035 0.208761)
(0.0955658 0.0283349 0.160561 0.0257876 -0.0325419 0.208387)
(0.09002 0.0562512 0.167593 0.058123 -0.0652955 0.200763)
(0.0432881 0.0659984 0.217267 0.17999 -0.0903209 0.148244)
(0.215473 -6.50671e-05 0.0959566 0.0010368 5.38797e-05 0.189601)
(0.215444 -0.0002398 0.0959847 0.00149911 0.000339596 0.189579)
(0.215392 -0.000554634 0.096035 0.00265846 0.000810709 0.189544)
(0.215263 -0.00115562 0.0961499 0.00535229 0.00171431 0.189452)
(0.214929 -0.00234598 0.0964162 0.0112854 0.00350448 0.189228)
(0.214052 -0.00485678 0.0970311 0.024294 0.00704954 0.188688)
(0.212394 -0.0105817 0.0981294 0.0521307 0.014081 0.187089)
(0.209945 -0.0253252 0.100476 0.104492 0.0301564 0.184454)
(0.214802 -0.0637855 0.0949805 0.167492 0.0705792 0.190487)
(0.0589198 6.92318e-05 0.152982 0.000838363 -3.12781e-05 0.253019)
(0.058996 0.00073045 0.152945 0.00091585 -0.000623168 0.253037)
(0.0591363 0.00179514 0.152873 0.00159737 -0.00155234 0.253056)
(0.0594299 0.00386202 0.152716 0.0031546 -0.00335832 0.253099)
(0.0599892 0.00809943 0.152413 0.00646164 -0.00709106 0.25318)
(0.0608999 0.0168395 0.151967 0.0132853 -0.014893 0.253253)
(0.0616103 0.0343803 0.152154 0.0271774 -0.0307041 0.252671)
(0.054146 0.0658521 0.159472 0.0613427 -0.059833 0.245744)
(-0.00816756 0.0771028 0.212841 0.188255 -0.0825054 0.200117)
(0.191688 -3.70842e-05 0.103804 0.00130751 5.85509e-05 0.221034)
(0.191655 -0.000284846 0.103827 0.00166351 0.000329638 0.221017)
(0.191573 -0.000688619 0.103877 0.00296884 0.000774407 0.220987)
(0.191388 -0.00146338 0.103994 0.00595547 0.00161849 0.220906)
(0.190982 -0.00304002 0.104261 0.0123886 0.00327767 0.220698)
(0.190097 -0.00628515 0.104903 0.0260466 0.00654729 0.220159)
(0.188171 -0.0131328 0.106424 0.0545488 0.0131618 0.218827)
(0.185049 -0.0300405 0.108815 0.107928 0.0285666 0.21684)
(0.192224 -0.0750658 0.102753 0.167866 0.0688081 0.22227)
(0.0292762 9.20704e-05 0.124724 0.000896916 -4.50228e-05 0.306617)
(0.0293347 0.000866557 0.12469 0.00101516 -0.000577603 0.306627)
(0.0294913 0.0021168 0.124631 0.00175568 -0.00142556 0.306635)
(0.0298171 0.00450818 0.124506 0.00341741 -0.00305937 0.306655)
(0.0304321 0.00933839 0.124277 0.00687466 -0.00638848 0.306691)
(0.0314389 0.0191589 0.123962 0.0138827 -0.0132162 0.306686)
(0.0319268 0.0385419 0.124299 0.028183 -0.0268414 0.306084)
(0.0223997 0.0728338 0.131523 0.0630536 -0.0516934 0.300736)
(-0.0486217 0.0899522 0.177525 0.18768 -0.0712433 0.269822)
(0.162954 -7.59347e-05 0.108701 0.00147646 4.67887e-05 0.253058)
(0.162909 -0.000362214 0.108725 0.00186408 0.000313427 0.253045)
(0.162809 -0.000855038 0.108772 0.00327702 0.000734994 0.253019)
(0.162585 -0.00179594 0.108888 0.00647994 0.00151516 0.252951)
(0.162097 -0.0036639 0.109158 0.0132762 0.00302084 0.252781)
(0.161008 -0.00739603 0.10981 0.0275176 0.00594875 0.252354)
(0.158618 -0.0151547 0.111298 0.0567825 0.0118321 0.251342)
(0.155052 -0.0335494 0.113391 0.110834 0.0252368 0.249744)
(0.163075 -0.0784261 0.107362 0.176832 0.0583361 0.251753)
(-0.0165128 7.62557e-05 0.116176 0.00102907 -3.61513e-05 0.327973)
(-0.0164106 0.00103234 0.116147 0.00113526 -0.000551474 0.327977)
(-0.0162273 0.00251527 0.116093 0.00193405 -0.00135601 0.327979)
(-0.015849 0.00531369 0.11598 0.00371679 -0.00288227 0.327984)
(-0.0151366 0.010901 0.115776 0.00738675 -0.0059493 0.327989)
(-0.0140123 0.022122 0.115516 0.0147539 -0.0121565 0.327933)
(-0.0138705 0.0439558 0.116011 0.0297484 -0.0243888 0.327329)
(-0.0276823 0.0816227 0.123684 0.0668483 -0.046394 0.322846)
(-0.117427 0.0807862 0.167377 0.201831 -0.0590469 0.299644)
(0.144697 -7.06088e-05 0.104663 0.00157145 4.71056e-05 0.276552)
(0.144642 -0.00043389 0.104686 0.0020492 0.000289964 0.276539)
(0.144524 -0.00102446 0.10473 0.00356714 0.000672881 0.27652)
(0.144261 -0.00212759 0.104835 0.00696798 0.00137341 0.276469)
(0.143682 -0.00427895 0.105084 0.0141219 0.00270734 0.276342)
(0.142385 -0.00852537 0.105684 0.0289897 0.00526566 0.276021)
(0.139564 -0.0173557 0.107014 0.0592673 0.0103351 0.275258)
(0.135443 -0.0385364 0.108482 0.114469 0.0216959 0.27418)
(0.145984 -0.0901211 0.0999078 0.178296 0.048441 0.277143)
(-0.0251395 9.07891e-05 0.055963 0.00113878 -2.14265e-05 0.361851)
(-0.0250455 0.00116049 0.0559418 0.00122994 -0.000416981 0.36185)
(-0.024865 0.00281581 0.0559171 0.00206488 -0.00102264 0.361843)
(-0.0244981 0.00590726 0.0558665 0.00392164 -0.00216007 0.361831)
(-0.0238217 0.012016 0.0557829 0.00770127 -0.00442549 0.361804)
(-0.0228467 0.0241368 0.0557371 0.0151855 -0.00897041 0.361719)
(-0.0235881 0.0473131 0.0564663 0.0303743 -0.0178521 0.361309)
(-0.0431401 0.0858477 0.0632348 0.0697156 -0.0337572 0.358884)
(-0.162714 0.0727381 0.0999691 0.2163 -0.0438936 0.346518)
(0.105737 -8.80425e-05 0.0858913 0.00171898 3.31443e-05 0.31131)
(0.105666 -0.000506501 0.0859101 0.00222157 0.000222582 0.311302)
(0.105531 -0.00118521 0.0859438 0.00382631 0.000514371 0.311287)
(0.105228 -0.00243547 0.0860267 0.00739758 0.00103859 0.311251)
(0.104557 -0.00483682 0.0862261 0.014848 0.00201783 0.311164)
(0.103052 -0.00953171 0.08671 0.0301643 0.00385897 0.310956)
(0.0999028 -0.0195077 0.0877556 0.0607353 0.00748897 0.310506)
(0.0964439 -0.0454931 0.0885592 0.113568 0.0159545 0.31004)
(0.112395 -0.115272 0.0802119 0.162952 0.0370001 0.311844)
(-0.0415385 8.8167e-05 0.00319969 0.00121168 -1.06336e-05 0.376469)
(-0.0414284 0.00127421 0.00319701 0.00130042 -0.000266505 0.376467)
(-0.0412453 0.00308302 0.003195 0.00216527 -0.000654053 0.376458)
(-0.0408736 0.00643143 0.00319098 0.00407494 -0.00137431 0.376442)
(-0.0401934 0.0129938 0.00319482 0.0079261 -0.00279789 0.37641)
(-0.0392424 0.0259052 0.00328056 0.0154574 -0.00563718 0.37634)
(-0.0402648 0.0503556 0.00395496 0.0304906 -0.0112018 0.376138)
(-0.061707 0.0907186 0.00848898 0.0686055 -0.0216362 0.375275)
(-0.194554 0.0869138 0.0331391 0.208746 -0.0325972 0.371038)
(0.0832659 -9.5948e-05 0.0569058 0.00179279 2.31142e-05 0.334729)
(0.0831865 -0.00056059 0.056918 0.00233942 0.000137494 0.334722)
(0.0830389 -0.00130308 0.0569384 0.00399796 0.000313178 0.334713)
(0.0827062 -0.00265668 0.0569903 0.00766427 0.000623396 0.334695)
(0.0819676 -0.005224 0.057118 0.0152646 0.00118835 0.334653)
(0.080305 -0.0101733 0.0574358 0.0307982 0.00222258 0.334561)
(0.0768483 -0.0205265 0.0581601 0.0616642 0.00425246 0.334359)
(0.0733516 -0.0470215 0.0590362 0.114863 0.00928594 0.334019)
(0.0931043 -0.118237 0.0558662 0.163588 0.0232501 0.333855)
(-0.00465588 8.24001e-05 -0.0598156 0.00129528 4.88025e-06 0.367692)
(-0.0045537 0.00130084 -0.0598103 0.00133465 -6.97138e-05 0.367689)
(-0.004391 0.00314244 -0.0597871 0.00219367 -0.000175022 0.367687)
(-0.00406776 0.00652903 -0.0597391 0.00409423 -0.000369698 0.367687)
(-0.0034825 0.0131235 -0.059637 0.00789153 -0.000756755 0.367689)
(-0.00269764 0.0260069 -0.0594099 0.0152134 -0.00154251 0.367704)
(-0.00389821 0.050218 -0.0588965 0.0295901 -0.00316625 0.367754)
(-0.024968 0.0899785 -0.0578054 0.0662715 -0.00674792 0.367859)
(-0.153681 0.0796286 -0.0569137 0.208281 -0.0177133 0.367152)
(0.0464558 -9.66444e-05 0.0177347 0.0018687 4.52157e-06 0.352417)
(0.0463677 -0.000590398 0.0177339 0.00240807 3.68797e-05 0.352415)
(0.0462075 -0.00137303 0.0177391 0.00409197 8.41428e-05 0.352409)
(0.0458479 -0.00278317 0.0177527 0.00779379 0.000163967 0.352396)
(0.0450475 -0.00542702 0.0177881 0.0154155 0.000299556 0.352377)
(0.0432407 -0.0104604 0.0178808 0.0308739 0.000518762 0.352354)
(0.0395275 -0.0209654 0.0180687 0.0613425 0.000882088 0.352335)
(0.0364286 -0.0488542 0.0178598 0.113137 0.00187887 0.352299)
(0.0617909 -0.128829 0.0146555 0.155006 0.00539654 0.352059)
(0.155645 -2.551e-06 -0.0764948 0.000831865 3.13794e-05 0.161015)
(0.155668 -5.37422e-05 -0.0764713 0.000657982 -0.000281894 0.161057)
(0.155733 -8.25713e-05 -0.0764582 0.00110672 -0.000679962 0.161069)
(0.155596 1.60095e-06 -0.0764717 0.00216343 -0.00141464 0.161223)
(0.153958 2.32087e-05 -0.0772001 0.00525778 -0.00304671 0.162409)
(0.155082 -0.00108829 -0.0775386 0.0103042 -0.00731494 0.162108)
(0.1552 -0.00142826 -0.0774184 0.0212001 -0.0157668 0.162191)
(0.152943 -0.00210453 -0.0813987 0.0459997 -0.0295699 0.164891)
(0.150581 0.00241302 -0.0870176 0.116225 -0.0378114 0.138804)
(0.147235 3.05434e-05 -0.067698 0.000763094 1.08137e-05 0.147631)
(0.147271 -0.000127392 -0.0676351 0.000842797 -0.000307127 0.14755)
(0.148666 -0.000486613 -0.0678348 0.00105641 -0.000739985 0.146919)
(0.149112 -0.000140433 -0.0680012 0.00192091 -0.00176746 0.146736)
(0.158126 -0.000170338 -0.0512521 0.00542659 -0.00332593 0.13018)
(0.147971 0.000365011 -0.0688218 0.0103605 -0.00668561 0.149657)
(0.146839 -0.00236674 -0.0688476 0.0221061 -0.0160523 0.148642)
(0.159341 -0.00178037 -0.0536128 0.0564091 -0.0177161 0.127742)
(0.155082 0.00676616 -0.0645077 0.133298 0.00718868 0.101855)
(0.140138 1.34259e-05 -0.0701359 -6.60248e-05 -0.000121619 0.127457)
(0.139865 0.000573415 -0.0693153 0.000778372 1.17257e-06 0.126856)
(0.138788 0.00135285 -0.078566 0.00117818 -0.000622126 0.136273)
(0.138259 -0.000357954 -0.0781857 0.00174643 -0.00116005 0.135402)
(0.129303 -0.00104252 -0.0745377 0.00599644 -0.00314886 0.135255)
(0.139692 -0.00147987 -0.0700103 0.0111368 -0.0061272 0.126821)
(0.139591 -0.00206461 -0.0698786 0.023075 -0.0124085 0.126821)
(0.127074 -0.000310204 -0.0758102 0.0444963 -0.0268589 0.137381)
(0.12182 0.00825829 -0.0883184 0.10665 -0.00891524 0.102578)
(0.101791 9.68214e-05 -0.0794313 0.000929285 -0.000805473 0.180125)
(0.101889 -0.00019287 -0.0794203 0.00121514 -0.00104335 0.180263)
(0.106472 -0.000765688 -0.0863848 0.000415281 -0.000898335 0.182519)
(0.106278 -0.000429314 -0.0863388 0.00173475 -0.00118566 0.183214)
(0.106046 -0.0006768 -0.0862243 0.00363118 -0.00256029 0.183032)
(0.101279 -0.000826922 -0.0792762 0.00936953 -0.00697231 0.181701)
(0.101238 -0.00332585 -0.0791769 0.0178628 -0.0143307 0.182057)
(0.104581 -0.00519685 -0.0883185 0.0364737 -0.0209534 0.188198)
(0.0972654 0.0130358 -0.103298 0.0953002 -0.00119923 0.155913)
(0.104524 1.18127e-05 -0.0701046 0.000580116 3.47663e-05 0.192896)
(0.104508 -6.07122e-05 -0.070036 0.000458312 -0.000162808 0.19288)
(0.103588 -4.55865e-05 -0.0700072 0.000951593 -0.000547729 0.193754)
(0.103648 -0.000404096 -0.0700166 0.00188431 -0.00119175 0.193492)
(0.103626 -0.000900046 -0.0700327 0.00386001 -0.0025919 0.193513)
(0.103944 -0.00202898 -0.070647 0.00750348 -0.00562936 0.194157)
(0.104117 -0.00409333 -0.0702771 0.014513 -0.0116704 0.195128)
(0.103535 -0.00571365 -0.0714344 0.0305629 -0.0180005 0.197597)
(0.0987319 0.00812326 -0.0838567 0.0853721 -0.000780215 0.167244)
(0.10801 -2.90221e-06 -0.074259 0.000588467 2.46516e-05 0.156296)
(0.10801 -0.000111023 -0.0742067 0.0005451 -0.000203609 0.156308)
(0.10746 -0.000166606 -0.0748104 0.000924901 -0.00051269 0.157266)
(0.107437 -0.000436693 -0.0749285 0.00179351 -0.00111907 0.157376)
(0.107428 -0.0009388 -0.0749466 0.00368746 -0.00247505 0.157388)
(0.107511 -0.00213711 -0.074856 0.00752121 -0.00557518 0.157575)
(0.107793 -0.00462505 -0.0743221 0.0147485 -0.0118611 0.158493)
(0.106905 -0.00705743 -0.0752835 0.0312777 -0.0193537 0.161066)
(0.0985035 0.00410571 -0.0879858 0.0845717 -0.0038873 0.134425)
(0.10643 3.20718e-05 -0.0638459 0.00051146 -5.89309e-05 0.16301)
(0.106439 -7.04465e-05 -0.0638287 0.000531508 -0.000290016 0.163038)
(0.106614 -0.000221532 -0.0640403 0.000842287 -0.000576401 0.163151)
(0.105663 -0.000389974 -0.0643859 0.00166701 -0.00124319 0.164171)
(0.105675 -0.00104663 -0.0644042 0.0033752 -0.00252613 0.164157)
(0.10577 -0.00235775 -0.0642993 0.00672365 -0.00558862 0.164412)
(0.106039 -0.00481933 -0.0636994 0.0129415 -0.0116227 0.165523)
(0.104453 -0.00574525 -0.0647319 0.0275772 -0.017281 0.168103)
(0.0917044 0.0153157 -0.0840148 0.0749072 0.0101551 0.137287)
(0.112789 -4.59763e-06 -0.0584822 0.000470085 7.22411e-06 0.15697)
(0.112801 -0.000106617 -0.0584644 0.000486642 -0.000192174 0.156993)
(0.112776 -0.000248937 -0.0584363 0.000864522 -0.000459051 0.156978)
(0.11189 -0.000459052 -0.0590803 0.0016555 -0.000985435 0.157951)
(0.112033 -0.00112207 -0.0590971 0.00328345 -0.00220051 0.157893)
(0.112223 -0.00249662 -0.0589767 0.00638452 -0.00496404 0.15811)
(0.112697 -0.00506056 -0.058443 0.0115764 -0.0103303 0.159204)
(0.111164 -0.00660234 -0.0598906 0.023216 -0.0152947 0.162463)
(0.0977787 0.0120826 -0.0798898 0.0738104 0.00992504 0.129998)
(0.107344 0.00012705 -0.0642223 0.000385407 -6.06973e-06 0.144219)
(0.107361 -5.23819e-06 -0.0642124 0.000462337 -0.000217553 0.144232)
(0.107365 -0.000186272 -0.0642047 0.000850914 -0.000520019 0.144229)
(0.107613 -0.000565427 -0.0644401 0.00157454 -0.00111082 0.144251)
(0.106639 -0.00131513 -0.0648004 0.00314241 -0.00250833 0.144803)
(0.106932 -0.00317667 -0.0645624 0.00610201 -0.00538213 0.145027)
(0.107642 -0.0065806 -0.0637751 0.0114844 -0.0110211 0.146019)
(0.107375 -0.00894613 -0.0643775 0.0241514 -0.0158532 0.146729)
(0.0896667 0.0160863 -0.0891017 0.0763157 0.0175603 0.110787)
(0.109217 -1.68079e-05 -0.0613774 0.000363161 -7.86836e-06 0.165638)
(0.109224 -0.000142203 -0.0613663 0.000479322 -0.000191448 0.165646)
(0.109242 -0.000335247 -0.0613607 0.000863904 -0.000460547 0.165637)
(0.109223 -0.000732618 -0.0613197 0.00168597 -0.00101088 0.165624)
(0.107876 -0.00150299 -0.0617712 0.00332462 -0.0022086 0.166853)
(0.108347 -0.00352076 -0.0615752 0.0065013 -0.00493911 0.166742)
(0.109061 -0.00724807 -0.0609021 0.0118684 -0.0103552 0.167469)
(0.108034 -0.0105809 -0.0612051 0.0237447 -0.0162695 0.169468)
(0.089098 0.0126557 -0.084827 0.0777754 0.00633999 0.136831)
(0.104254 0.00029382 -0.0839432 0.000260662 0.000125847 0.120725)
(0.104269 0.000105561 -0.0839383 0.000458239 -0.000106795 0.120722)
(0.104293 -0.000173421 -0.0839231 0.0008259 -0.000467973 0.120714)
(0.104329 -0.00071049 -0.0838893 0.00164364 -0.00119557 0.120692)
(0.104675 -0.00187676 -0.0840997 0.00323124 -0.00277624 0.12058)
(0.10377 -0.00450199 -0.0843307 0.00643466 -0.00631647 0.120656)
(0.104713 -0.0098009 -0.0833654 0.012242 -0.0131746 0.121407)
(0.104886 -0.0162564 -0.0836832 0.0248194 -0.022032 0.121072)
(0.0817397 0.00445058 -0.112056 0.0882016 -0.00261972 0.0843927)
(0.0788026 -4.53365e-06 -0.0741162 0.000295184 -3.91794e-05 0.190382)
(0.0788102 -0.000208287 -0.0741056 0.000491983 -0.000234542 0.190364)
(0.0788414 -0.000524362 -0.0740961 0.000888857 -0.00057584 0.19035)
(0.0789087 -0.00114969 -0.074072 0.00175189 -0.00126035 0.190324)
(0.0790651 -0.00248068 -0.0739976 0.00354267 -0.00272973 0.190245)
(0.0783761 -0.0054375 -0.0741801 0.00702228 -0.0061009 0.190904)
(0.0792052 -0.0115881 -0.0734953 0.0134159 -0.0128074 0.191256)
(0.0788712 -0.020215 -0.0738703 0.0278942 -0.0231061 0.190712)
(0.049372 -0.000209083 -0.100985 0.0972377 -0.0132999 0.164493)
(0.0589288 0.000254525 -0.0547088 0.000231726 -0.000113354 0.216803)
(0.058968 -9.8319e-05 -0.054722 0.000405705 -0.000354861 0.216794)
(0.0590176 -0.000593789 -0.054705 0.000729885 -0.000791535 0.216787)