/*--------------------------------*- C++ -*----------------------------------*\
| =========                 |                                                 |
| \\      /  F ield         | foam-extend: Open Source CFD                    |
|  \\    /   O peration     | Version:     3.1                                |
|   \\  /    A nd           | Web:         http://www.extend-project.de       |
|    \\/     M anipulation  |                                                 |
\*---------------------------------------------------------------------------*/
FoamFile
{
    version     2.0;
    format      ascii;
    class       volScalarField;
    location    "172800";
    object      o;
}
// * * * * * * * * * * * * * * * * * * * * * * * * * * * * * * * * * * * * * //

dimensions      [0 0 0 0 0 0 0];

internalField   uniform 0;

boundaryField
{
    OUTER
    {
        type            zeroGradient;
    }
    INNER
    {
        type            zeroGradient;
    }
    BOTTOM
    {
        type            zeroGradient;
    }
    WALL_OUTER
    {
        type            zeroGradient;
    }
    WALL_INNER
    {
        type            zeroGradient;
    }
}


// ************************************************************************* //
