/*--------------------------------*- C++ -*----------------------------------*\
| =========                 |                                                 |
| \\      /  F ield         | foam-extend: Open Source CFD                    |
|  \\    /   O peration     | Version:     3.1                                |
|   \\  /    A nd           | Web:         http://www.extend-project.de       |
|    \\/     M anipulation  |                                                 |
\*---------------------------------------------------------------------------*/
FoamFile
{
    version     2.0;
    format      ascii;
    class       volScalarField;
    location    "172800";
    object      REpsilonHyd;
}
// * * * * * * * * * * * * * * * * * * * * * * * * * * * * * * * * * * * * * //

dimensions      [0 0 0 0 0 0 0];

internalField   nonuniform List<scalar> 
21211
(
5.08871e-07
5.09559e-07
5.09941e-07
5.10617e-07
5.11505e-07
5.17004e-07
5.28835e-07
5.56455e-07
6.3541e-07
6.74111e-07
6.72532e-07
6.7287e-07
6.73673e-07
6.75874e-07
6.82815e-07
7.01166e-07
7.50106e-07
8.8024e-07
5.16516e-07
5.17553e-07
5.17922e-07
5.18693e-07
5.20466e-07
5.25399e-07
5.37811e-07
5.68448e-07
6.59846e-07
6.607e-07
6.59108e-07
6.59462e-07
6.60526e-07
6.6317e-07
6.7034e-07
6.89677e-07
7.426e-07
8.84784e-07
5.27419e-07
5.2909e-07
5.29528e-07
5.30415e-07
5.32424e-07
5.37539e-07
5.50387e-07
5.82028e-07
6.73269e-07
6.79562e-07
6.78167e-07
6.78587e-07
6.79734e-07
6.82548e-07
6.89989e-07
7.09818e-07
7.63363e-07
9.02041e-07
5.54631e-07
5.56063e-07
5.56495e-07
5.57383e-07
5.59476e-07
5.6485e-07
5.78415e-07
6.12441e-07
7.1458e-07
7.05786e-07
7.05239e-07
7.0571e-07
7.06907e-07
7.09898e-07
7.1778e-07
7.38795e-07
7.95577e-07
9.4518e-07
5.67396e-07
5.69544e-07
5.70045e-07
5.70969e-07
5.7319e-07
5.7881e-07
5.92863e-07
6.27667e-07
7.33408e-07
7.0303e-07
7.03562e-07
7.04159e-07
7.05448e-07
7.08633e-07
7.16962e-07
7.39047e-07
7.98419e-07
9.52541e-07
6.35304e-07
6.36867e-07
6.37349e-07
6.38316e-07
6.40518e-07
6.46419e-07
6.61475e-07
6.98338e-07
8.09528e-07
7.24385e-07
7.25939e-07
7.26613e-07
7.27937e-07
7.31255e-07
7.39992e-07
7.63162e-07
8.25281e-07
9.88944e-07
5.25418e-07
5.267e-07
5.27218e-07
5.28296e-07
5.3088e-07
5.37385e-07
5.536e-07
5.93316e-07
7.15397e-07
7.39183e-07
7.42025e-07
7.42815e-07
7.44244e-07
7.47842e-07
7.57092e-07
7.81437e-07
8.47066e-07
1.01836e-06
6.96877e-07
6.97548e-07
6.9794e-07
6.98982e-07
7.01634e-07
7.0802e-07
7.24423e-07
7.63504e-07
8.80858e-07
7.872e-07
7.90329e-07
7.91121e-07
7.92625e-07
7.96425e-07
8.06164e-07
8.31625e-07
8.98491e-07
1.06882e-06
6.08712e-07
6.08635e-07
6.0902e-07
6.10259e-07
6.13208e-07
6.2039e-07
6.37724e-07
6.79329e-07
8.07555e-07
8.29666e-07
8.32135e-07
8.32889e-07
8.34475e-07
8.3846e-07
8.48671e-07
8.75251e-07
9.46177e-07
1.12684e-06
6.81547e-07
6.8133e-07
6.81819e-07
6.83145e-07
6.86144e-07
6.93776e-07
7.11357e-07
7.56713e-07
8.90102e-07
8.63058e-07
8.64794e-07
8.65609e-07
8.67367e-07
8.71612e-07
8.8224e-07
9.09903e-07
9.83636e-07
1.16265e-06
6.91613e-07
6.90836e-07
6.91228e-07
6.92634e-07
6.96293e-07
7.06426e-07
9.25857e-07
7.62704e-07
9.13974e-07
8.84947e-07
8.84801e-07
8.85574e-07
8.87671e-07
8.93192e-07
9.08512e-07
9.57523e-07
1.02567e-06
1.21051e-06
7.61414e-07
7.61344e-07
7.61947e-07
7.63411e-07
7.66828e-07
7.7291e-07
7.06494e-07
8.50346e-07
9.88624e-07
9.39377e-07
9.3861e-07
9.39366e-07
9.41462e-07
9.46494e-07
9.58552e-07
9.87058e-07
1.07309e-06
1.27091e-06
8.21618e-07
8.22591e-07
8.23313e-07
8.24906e-07
8.28672e-07
8.37301e-07
8.53531e-07
8.98938e-07
1.0558e-06
9.22299e-07
9.20855e-07
9.21679e-07
9.24059e-07
9.29832e-07
9.43942e-07
9.79207e-07
1.06788e-06
1.27785e-06
8.53445e-07
8.55388e-07
8.56247e-07
8.57993e-07
8.62066e-07
8.71345e-07
8.91615e-07
9.35999e-07
1.09685e-06
9.4296e-07
9.42336e-07
9.43348e-07
9.46001e-07
9.52337e-07
9.67589e-07
1.00494e-06
1.09673e-06
1.3109e-06
9.34053e-07
9.35972e-07
9.36877e-07
9.38727e-07
9.42968e-07
9.52418e-07
9.72539e-07
1.01583e-06
1.16359e-06
9.71007e-07
9.70185e-07
9.71248e-07
9.74093e-07
9.80817e-07
9.96779e-07
1.03521e-06
1.12793e-06
1.34011e-06
9.18716e-07
9.20327e-07
9.2128e-07
9.23266e-07
9.27768e-07
9.37678e-07
9.58473e-07
1.0028e-06
1.17197e-06
9.86409e-07
9.86047e-07
9.87255e-07
9.90308e-07
9.97439e-07
1.01424e-06
1.05443e-06
1.15075e-06
1.37048e-06
9.54762e-07
9.56336e-07
9.57332e-07
9.59379e-07
9.63935e-07
9.73695e-07
9.93356e-07
1.03386e-06
1.19744e-06
9.91039e-07
9.90379e-07
9.91634e-07
9.94839e-07
1.00225e-06
1.01949e-06
1.06003e-06
1.15439e-06
1.35855e-06
9.66507e-07
9.68038e-07
9.69055e-07
9.71144e-07
9.75752e-07
9.85518e-07
1.00483e-06
1.04293e-06
1.18577e-06
1.00018e-06
9.99565e-07
1.00087e-06
1.00418e-06
1.01179e-06
1.02943e-06
1.07087e-06
1.16766e-06
1.37984e-06
9.91688e-07
9.92907e-07
9.9392e-07
9.95996e-07
1.00052e-06
1.00996e-06
1.02821e-06
1.06334e-06
1.20644e-06
9.79575e-07
9.78866e-07
9.80207e-07
9.83546e-07
9.91168e-07
1.00874e-06
1.0499e-06
1.14612e-06
1.35857e-06
7.69871e-07
7.7046e-07
7.7093e-07
7.71481e-07
7.68228e-07
7.76264e-07
7.86374e-07
8.03754e-07
8.74855e-07
6.85007e-07
6.86125e-07
6.90553e-07
6.92422e-07
6.29482e-07
7.08504e-07
7.08476e-07
7.11788e-07
8.38242e-07
6.02149e-07
5.97044e-07
6.61154e-07
6.48391e-07
5.92906e-07
6.06208e-07
6.20066e-07
6.29659e-07
6.78075e-07
6.68227e-07
6.69503e-07
7.29098e-07
7.35409e-07
7.33738e-07
6.77443e-07
6.8365e-07
7.57162e-07
8.10442e-07
7.25195e-07
7.24944e-07
7.25038e-07
7.25637e-07
7.27024e-07
7.30183e-07
7.37847e-07
7.52891e-07
7.89838e-07
6.23734e-07
6.23472e-07
6.23729e-07
6.2425e-07
6.25684e-07
6.29215e-07
6.37283e-07
6.54137e-07
6.914e-07
6.18281e-07
6.18053e-07
6.18251e-07
6.18768e-07
6.20229e-07
6.23734e-07
6.31732e-07
6.47992e-07
6.92814e-07
5.9828e-07
5.98224e-07
5.98511e-07
5.99082e-07
6.00542e-07
6.04e-07
6.11583e-07
6.24765e-07
6.39067e-07
5.45594e-07
5.45602e-07
5.4589e-07
5.46552e-07
5.48195e-07
5.51914e-07
5.60103e-07
5.75486e-07
6.12708e-07
6.01886e-07
6.02019e-07
6.0233e-07
6.03079e-07
6.04653e-07
6.08586e-07
6.16942e-07
6.30998e-07
6.53994e-07
4.7931e-07
4.79474e-07
4.7983e-07
4.80689e-07
4.82729e-07
4.87424e-07
4.97427e-07
5.15721e-07
5.5983e-07
6.03124e-07
6.03126e-07
6.03504e-07
6.0446e-07
6.06721e-07
6.11899e-07
6.22809e-07
6.42974e-07
6.98157e-07
6.26545e-07
6.26499e-07
6.26903e-07
6.27952e-07
6.30379e-07
6.35721e-07
6.46854e-07
6.6684e-07
7.25831e-07
6.61494e-07
6.61394e-07
6.61823e-07
6.62923e-07
6.65418e-07
6.70822e-07
6.81517e-07
7.00015e-07
7.49553e-07
6.97949e-07
6.97752e-07
6.98215e-07
6.99393e-07
7.02015e-07
7.07573e-07
7.18364e-07
7.36448e-07
7.80816e-07
7.15667e-07
7.15429e-07
7.15935e-07
7.17214e-07
7.20025e-07
7.25918e-07
7.37344e-07
7.57443e-07
8.15948e-07
7.23379e-07
7.23088e-07
7.2363e-07
7.24997e-07
7.27965e-07
7.34093e-07
7.4579e-07
7.66191e-07
8.20536e-07
6.49418e-07
6.49138e-07
6.49714e-07
6.51157e-07
6.5428e-07
6.60733e-07
6.7312e-07
6.95194e-07
7.66716e-07
6.64462e-07
6.6416e-07
6.64736e-07
6.6617e-07
6.69243e-07
6.75508e-07
6.8728e-07
7.07257e-07
7.65418e-07
6.39193e-07
6.37811e-07
6.38237e-07
6.38868e-07
6.4032e-07
6.47808e-07
6.66481e-07
7.14152e-07
8.41402e-07
5.76087e-07
5.74676e-07
5.76533e-07
5.7824e-07
5.73654e-07
5.86445e-07
6.0488e-07
6.40584e-07
7.59624e-07
5.88334e-07
5.88806e-07
5.88079e-07
5.9081e-07
5.91893e-07
6.00279e-07
6.13928e-07
6.60723e-07
7.78074e-07
5.67818e-07
5.66927e-07
5.6538e-07
5.65778e-07
5.68075e-07
5.76644e-07
5.9319e-07
6.34253e-07
7.43823e-07
5.65034e-07
5.64319e-07
5.64541e-07
5.65447e-07
5.67821e-07
5.73874e-07
5.88817e-07
6.26837e-07
7.23669e-07
5.31407e-07
5.31022e-07
5.3145e-07
5.3244e-07
5.34759e-07
5.40539e-07
5.55301e-07
5.93994e-07
6.95569e-07
5.22087e-07
5.21856e-07
5.22261e-07
5.23213e-07
5.255e-07
5.31179e-07
5.45623e-07
5.82532e-07
6.74729e-07
5.40867e-07
5.40747e-07
5.41158e-07
5.42116e-07
5.44394e-07
5.49913e-07
5.6348e-07
5.97383e-07
6.83331e-07
5.38226e-07
5.38313e-07
5.38745e-07
5.39769e-07
5.42189e-07
5.48054e-07
5.62702e-07
5.99664e-07
6.93662e-07
5.54333e-07
5.54262e-07
5.54717e-07
5.55836e-07
5.58474e-07
5.64792e-07
5.80099e-07
6.17692e-07
7.10395e-07
5.72621e-07
5.72647e-07
5.73147e-07
5.74429e-07
5.77485e-07
5.84738e-07
6.02443e-07
6.46044e-07
7.50051e-07
6.03499e-07
6.03348e-07
6.03912e-07
6.05404e-07
6.08936e-07
6.17292e-07
6.37444e-07
6.8658e-07
8.00255e-07
6.08706e-07
6.0861e-07
6.09223e-07
6.1084e-07
6.14609e-07
6.23351e-07
6.43913e-07
6.92402e-07
8.00905e-07
6.30899e-07
6.30762e-07
6.31436e-07
6.33162e-07
6.37099e-07
6.4601e-07
6.66425e-07
7.13191e-07
8.14986e-07
6.44168e-07
6.4426e-07
6.45023e-07
6.46896e-07
6.51104e-07
6.60496e-07
6.81706e-07
7.29563e-07
8.31112e-07
6.4584e-07
6.46081e-07
6.46929e-07
6.48964e-07
6.53488e-07
6.63489e-07
6.85858e-07
7.35872e-07
8.41331e-07
6.25867e-07
6.26313e-07
6.27236e-07
6.29402e-07
6.34168e-07
6.4457e-07
6.67425e-07
7.17399e-07
8.19996e-07
6.15998e-07
6.16533e-07
6.17498e-07
6.19726e-07
6.24604e-07
6.35238e-07
6.58702e-07
7.1039e-07
8.17356e-07
5.87102e-07
5.87779e-07
5.8876e-07
5.90994e-07
5.95844e-07
6.06313e-07
6.29165e-07
6.79166e-07
7.83418e-07
4.79239e-07
4.635e-07
4.34993e-07
4.23947e-07
3.95732e-07
3.81601e-07
3.55574e-07
3.45469e-07
3.41288e-07
3.31746e-07
3.19516e-07
3.01311e-07
2.9858e-07
3.19546e-07
3.33195e-07
3.47964e-07
3.63263e-07
3.52863e-07
3.33111e-07
4.54553e-07
4.33113e-07
4.07739e-07
3.99725e-07
3.7102e-07
3.60526e-07
3.41719e-07
3.27363e-07
3.09904e-07
3.00892e-07
2.75707e-07
2.61389e-07
2.73432e-07
3.20356e-07
3.50332e-07
3.61733e-07
3.30773e-07
3.14035e-07
3.20347e-07
4.55111e-07
4.49246e-07
4.21558e-07
3.98082e-07
3.8364e-07
3.70534e-07
3.47218e-07
3.32312e-07
3.2906e-07
3.14681e-07
3.05364e-07
3.0424e-07
3.04797e-07
3.20759e-07
3.48565e-07
3.48883e-07
3.24176e-07
3.23757e-07
3.26492e-07
4.49098e-07
4.14449e-07
3.6736e-07
3.65104e-07
3.59858e-07
3.42218e-07
3.32809e-07
3.14267e-07
3.10739e-07
2.96166e-07
2.79168e-07
2.56649e-07
2.55282e-07
2.91942e-07
3.41713e-07
3.46231e-07
3.37691e-07
3.07749e-07
2.96853e-07
4.33308e-07
4.08725e-07
4.06528e-07
3.88478e-07
3.54724e-07
3.53493e-07
3.40354e-07
3.33873e-07
3.14655e-07
3.17597e-07
3.0114e-07
2.99528e-07
3.13396e-07
3.27779e-07
3.31479e-07
3.31361e-07
3.11597e-07
2.94882e-07
3.08442e-07
4.25629e-07
4.0737e-07
3.54732e-07
3.17317e-07
3.24412e-07
3.29916e-07
3.25236e-07
3.2562e-07
3.05659e-07
3.35284e-07
2.81556e-07
2.74462e-07
2.53544e-07
2.7634e-07
2.93197e-07
3.1284e-07
3.17708e-07
3.15241e-07
2.96758e-07
4.32076e-07
3.96168e-07
3.65892e-07
3.73314e-07
3.52374e-07
3.31818e-07
3.37509e-07
3.24969e-07
3.25997e-07
3.02964e-07
3.05242e-07
3.03104e-07
3.12225e-07
3.23502e-07
3.16805e-07
2.65624e-07
3.04101e-07
2.96214e-07
2.92751e-07
3.83492e-07
3.79095e-07
3.5469e-07
3.14041e-07
3.00898e-07
3.08502e-07
3.202e-07
3.33733e-07
3.34489e-07
2.97627e-07
2.90488e-07
2.68164e-07
2.71787e-07
2.68647e-07
2.59849e-07
2.63851e-07
2.84967e-07
2.98176e-07
3.10525e-07
4.19572e-07
4.0816e-07
3.57328e-07
3.18025e-07
3.56921e-07
3.34549e-07
3.07302e-07
3.22406e-07
3.21527e-07
3.22621e-07
3.14101e-07
3.34282e-07
3.10786e-07
3.0561e-07
2.8906e-07
2.86043e-07
2.51365e-07
2.89632e-07
2.95619e-07
3.70516e-07
3.49751e-07
3.31232e-07
3.21069e-07
3.45025e-07
3.29797e-07
3.20277e-07
3.21215e-07
3.24317e-07
3.39647e-07
2.90365e-07
3.61365e-07
2.91357e-07
3.11065e-07
2.54595e-07
2.24237e-07
2.50701e-07
2.7577e-07
3.05735e-07
4.05529e-07
4.06778e-07
3.78319e-07
3.28567e-07
3.23332e-07
3.52025e-07
3.09256e-07
3.01698e-07
3.21803e-07
3.21351e-07
3.34088e-07
3.39175e-07
3.15973e-07
2.72144e-07
2.55968e-07
2.81661e-07
2.89846e-07
2.87864e-07
3.05554e-07
3.82245e-07
3.6496e-07
3.57788e-07
3.50812e-07
3.43814e-07
3.25013e-07
2.88574e-07
3.17584e-07
2.83668e-07
3.02292e-07
3.35391e-07
3.18042e-07
3.31763e-07
2.91211e-07
2.38142e-07
2.34097e-07
2.3243e-07
2.48671e-07
2.7963e-07
4.09778e-07
4.15612e-07
3.99624e-07
3.79022e-07
3.35355e-07
3.50234e-07
3.41872e-07
3.27778e-07
2.81223e-07
3.18613e-07
3.43597e-07
3.3472e-07
3.04096e-07
2.83388e-07
2.55696e-07
2.6094e-07
3.00732e-07
3.01629e-07
3.2596e-07
4.27667e-07
3.97632e-07
3.69616e-07
3.43959e-07
3.09142e-07
4.16692e-07
3.18741e-07
2.89353e-07
2.95814e-07
2.90812e-07
3.03014e-07
3.36683e-07
3.02569e-07
3.02426e-07
2.76365e-07
2.19623e-07
2.32023e-07
2.29646e-07
2.65828e-07
4.3983e-07
4.17574e-07
4.12143e-07
4.04423e-07
3.80157e-07
3.64707e-07
3.14617e-07
3.43155e-07
3.36351e-07
3.2137e-07
3.26389e-07
3.18906e-07
2.89058e-07
3.0155e-07
2.71005e-07
2.85513e-07
3.03072e-07
3.39937e-07
3.56299e-07
4.29778e-07
3.99585e-07
3.79293e-07
3.46679e-07
3.06934e-07
2.9371e-07
4.15486e-07
3.04433e-07
2.96108e-07
2.86043e-07
2.8043e-07
2.82763e-07
3.09784e-07
2.57974e-07
2.80732e-07
2.65984e-07
2.55185e-07
2.59129e-07
2.73207e-07
4.45676e-07
4.34073e-07
4.12289e-07
4.0759e-07
3.81057e-07
3.50699e-07
3.6816e-07
3.32737e-07
3.56869e-07
3.32202e-07
2.82242e-07
2.73645e-07
2.87939e-07
2.74105e-07
2.76952e-07
3.00417e-07
3.34386e-07
3.55933e-07
3.68971e-07
4.22052e-07
3.97136e-07
3.55485e-07
4.55677e-07
3.35564e-07
3.06558e-07
2.86611e-07
4.12233e-07
3.05205e-07
2.83303e-07
2.47912e-07
2.12541e-07
2.71563e-07
2.87126e-07
2.77915e-07
2.60197e-07
2.85141e-07
2.96588e-07
3.13213e-07
4.53416e-07
4.19487e-07
4.02296e-07
3.91797e-07
3.97401e-07
3.77097e-07
3.71642e-07
3.47757e-07
3.20915e-07
3.15703e-07
3.11807e-07
2.62127e-07
2.91565e-07
2.97427e-07
3.0277e-07
3.2089e-07
3.42857e-07
3.50174e-07
3.33576e-07
4.18785e-07
3.93078e-07
3.57091e-07
3.14395e-07
4.37131e-07
3.40753e-07
3.20778e-07
2.85701e-07
3.87116e-07
2.86165e-07
3.05004e-07
2.53822e-07
2.52889e-07
2.86739e-07
2.79504e-07
2.95497e-07
3.08896e-07
3.28645e-07
3.19228e-07
4.30845e-07
4.01998e-07
3.83021e-07
4.03728e-07
3.87046e-07
3.96437e-07
3.90006e-07
3.62299e-07
3.00852e-07
3.45675e-07
2.96525e-07
3.12652e-07
2.85059e-07
3.34418e-07
3.2226e-07
3.25455e-07
3.30482e-07
3.23393e-07
3.24687e-07
4.1956e-07
3.87489e-07
3.44261e-07
4.3376e-07
3.5467e-07
3.65823e-07
3.20703e-07
3.02144e-07
2.30027e-07
3.56136e-07
2.68395e-07
2.36684e-07
2.45138e-07
2.77098e-07
3.00731e-07
3.09393e-07
3.23926e-07
3.21909e-07
3.05003e-07
4.1549e-07
3.90323e-07
3.72261e-07
3.7467e-07
3.97048e-07
3.95425e-07
3.80607e-07
3.44865e-07
2.96153e-07
2.92713e-07
3.58635e-07
3.20066e-07
3.15145e-07
3.29951e-07
3.31357e-07
3.18625e-07
3.19379e-07
3.17214e-07
3.13588e-07
4.14026e-07
3.88569e-07
3.65864e-07
3.65268e-07
3.67133e-07
3.24669e-07
3.95251e-07
3.03293e-07
3.09562e-07
2.18732e-07
3.48031e-07
2.67308e-07
2.62138e-07
2.81419e-07
2.96796e-07
3.08902e-07
3.1347e-07
3.01841e-07
3.04175e-07
4.37175e-07
4.13759e-07
3.96664e-07
3.9626e-07
3.8449e-07
3.73417e-07
3.37518e-07
3.36074e-07
3.13131e-07
2.89285e-07
2.94555e-07
2.90157e-07
3.34559e-07
3.37577e-07
3.15987e-07
3.24245e-07
3.24438e-07
3.33189e-07
3.24247e-07
4.31979e-07
3.99263e-07
3.95187e-07
3.89755e-07
3.37754e-07
4.00258e-07
2.48074e-07
3.58853e-07
2.49316e-07
2.46392e-07
2.45426e-07
2.8543e-07
2.75829e-07
3.03142e-07
2.89977e-07
3.068e-07
3.04069e-07
3.08241e-07
3.03132e-07
4.72666e-07
4.55472e-07
4.48376e-07
4.21637e-07
3.72113e-07
3.15947e-07
3.28936e-07
3.11737e-07
3.20403e-07
3.12584e-07
3.12941e-07
3.25476e-07
3.22941e-07
3.63411e-07
3.33926e-07
3.2465e-07
3.42405e-07
3.43295e-07
3.42254e-07
4.53427e-07
4.37191e-07
4.26229e-07
3.91779e-07
4.14194e-07
2.40347e-07
3.68182e-07
2.27853e-07
3.39154e-07
2.66684e-07
2.44315e-07
2.92838e-07
2.83998e-07
3.20914e-07
3.1367e-07
2.99758e-07
3.22454e-07
3.18051e-07
3.27952e-07
5.13818e-07
5.12996e-07
4.81469e-07
4.12286e-07
3.13573e-07
3.1568e-07
2.90497e-07
3.18812e-07
3.14957e-07
3.28759e-07
3.47228e-07
3.54909e-07
3.34348e-07
3.51059e-07
3.7318e-07
3.62204e-07
3.5175e-07
3.67762e-07
3.55993e-07
4.85645e-07
4.75051e-07
4.33914e-07
4.18142e-07
2.45432e-07
3.89014e-07
2.17169e-07
3.41417e-07
2.54401e-07
2.88945e-07
2.85092e-07
2.63933e-07
2.96842e-07
3.31951e-07
3.46161e-07
3.1748e-07
3.23446e-07
3.51387e-07
3.44938e-07
5.6579e-07
5.34076e-07
4.82003e-07
4.49019e-07
4.9104e-07
2.71161e-07
3.03685e-07
3.05276e-07
3.38464e-07
3.5606e-07
3.70235e-07
3.83252e-07
3.79399e-07
3.55343e-07
3.51149e-07
3.83072e-07
3.97723e-07
3.91834e-07
3.93729e-07
5.25352e-07
4.85434e-07
4.27298e-07
5.02543e-07
4.15674e-07
2.46651e-07
3.63427e-07
2.52731e-07
3.08053e-07
3.15516e-07
3.205e-07
3.20089e-07
3.2524e-07
3.54882e-07
3.62677e-07
3.58205e-07
3.39081e-07
3.54848e-07
3.78674e-07
5.66789e-07
5.14356e-07
4.66872e-07
3.47552e-07
4.40561e-07
5.01018e-07
3.10733e-07
3.31076e-07
3.54544e-07
3.9095e-07
4.00294e-07
3.97263e-07
4.04987e-07
4.11476e-07
3.72882e-07
3.71595e-07
4.15547e-07
4.19075e-07
3.99706e-07
5.13369e-07
4.75326e-07
4.30473e-07
2.92474e-07
5.09508e-07
4.11725e-07
2.663e-07
3.47774e-07
2.94095e-07
3.20602e-07
3.51448e-07
3.57427e-07
3.58935e-07
3.84954e-07
3.74583e-07
3.96402e-07
3.83312e-07
3.62771e-07
3.73889e-07
5.33959e-07
4.69475e-07
4.64117e-07
4.58031e-07
4.34536e-07
4.4495e-07
3.76927e-07
3.64331e-07
3.77895e-07
4.19718e-07
4.2199e-07
4.09961e-07
4.05868e-07
4.41856e-07
4.39304e-07
4.14199e-07
4.11224e-07
4.46834e-07
4.22383e-07
4.82669e-07
4.59355e-07
4.32466e-07
4.13282e-07
3.48846e-07
5.0865e-07
3.48543e-07
3.62319e-07
3.47941e-07
3.72729e-07
3.77191e-07
3.89218e-07
3.94445e-07
4.18963e-07
4.0799e-07
4.06926e-07
4.29956e-07
4.05329e-07
3.9541e-07
5.02436e-07
6.15563e-07
4.71769e-07
4.64478e-07
4.77085e-07
4.4152e-07
4.56544e-07
3.82593e-07
4.11598e-07
4.37958e-07
4.37705e-07
4.35633e-07
4.43452e-07
4.61075e-07
4.64361e-07
4.63863e-07
4.49168e-07
4.34662e-07
4.43809e-07
4.61308e-07
4.77798e-07
4.36378e-07
4.11323e-07
5.12916e-07
3.24765e-07
5.50653e-07
3.4169e-07
3.99551e-07
4.0095e-07
4.19125e-07
4.2305e-07
4.2419e-07
4.60777e-07
4.53182e-07
4.26028e-07
4.47786e-07
4.62258e-07
4.27901e-07
1.13953e-06
9.75145e-07
1.07582e-06
1.18211e-06
1.06643e-06
9.52198e-07
9.03132e-07
8.40114e-07
7.84041e-07
7.21097e-07
7.02636e-07
6.78383e-07
6.26628e-07
5.76494e-07
5.69496e-07
5.22598e-07
4.82787e-07
4.72434e-07
4.924e-07
1.05021e-06
1.21105e-06
1.20264e-06
1.21177e-06
1.15476e-06
1.05327e-06
9.5948e-07
9.05555e-07
8.34358e-07
7.4975e-07
7.35234e-07
6.87622e-07
6.23422e-07
5.85729e-07
5.47675e-07
4.89028e-07
4.97827e-07
4.94887e-07
4.68725e-07
1.22086e-06
1.02574e-06
1.15304e-06
1.02249e-06
9.46672e-07
1.08196e-06
9.92603e-07
9.01453e-07
8.4773e-07
7.64254e-07
7.45957e-07
7.1916e-07
6.43735e-07
6.31967e-07
5.76454e-07
5.10805e-07
4.66893e-07
4.82e-07
4.76681e-07
1.24017e-06
1.28618e-06
1.26191e-06
1.21841e-06
1.16612e-06
1.15366e-06
1.09783e-06
9.57252e-07
8.97632e-07
8.01138e-07
7.58435e-07
6.86639e-07
6.51538e-07
6.57632e-07
5.64578e-07
5.17112e-07
5.17879e-07
5.05479e-07
4.86559e-07
1.16336e-06
1.01318e-06
1.17205e-06
1.139e-06
1.05895e-06
1.13588e-06
1.03379e-06
9.49602e-07
8.63733e-07
8.15764e-07
7.51532e-07
6.98917e-07
6.6126e-07
6.70749e-07
5.98729e-07
5.04727e-07
5.20714e-07
5.12153e-07
4.896e-07
1.11892e-06
1.26521e-06
1.26668e-06
1.2458e-06
1.2047e-06
1.20273e-06
1.12356e-06
1.02133e-06
9.11158e-07
8.53351e-07
7.91085e-07
7.36561e-07
7.16603e-07
6.75379e-07
5.64986e-07
5.35159e-07
5.37031e-07
5.16402e-07
4.51451e-07
1.30828e-06
1.17229e-06
1.29851e-06
1.22813e-06
1.12215e-06
9.95814e-07
8.7303e-07
1.03901e-06
9.37861e-07
8.70357e-07
7.65168e-07
7.21235e-07
6.9232e-07
6.66322e-07
5.77117e-07
5.42125e-07
5.65251e-07
5.19246e-07
4.64931e-07
1.18249e-06
1.33252e-06
1.337e-06
1.3121e-06
1.2521e-06
1.1772e-06
1.09767e-06
1.06935e-06
9.48642e-07
9.18381e-07
8.28512e-07
7.773e-07
7.4614e-07
6.3922e-07
5.76918e-07
5.86995e-07
5.73345e-07
5.17654e-07
4.21379e-07
1.27351e-06
1.1754e-06
1.30054e-06
1.204e-06
1.10663e-06
1.07568e-06
1.06135e-06
1.04194e-06
9.55318e-07
8.90143e-07
8.35747e-07
7.44974e-07
7.14347e-07
6.56569e-07
5.94879e-07
6.0702e-07
5.56571e-07
4.91782e-07
4.45662e-07
1.19485e-06
1.37537e-06
1.38939e-06
1.32679e-06
1.24554e-06
1.18534e-06
1.13203e-06
1.10941e-06
1.04257e-06
9.56627e-07
8.46819e-07
8.03742e-07
7.4731e-07
6.45421e-07
6.13886e-07
6.17894e-07
5.58173e-07
4.64245e-07
4.05197e-07
1.33934e-06
1.18372e-06
1.39777e-06
1.19014e-06
1.19031e-06
1.09101e-06
1.01706e-06
1.14059e-06
1.01978e-06
8.90605e-07
8.40205e-07
7.96913e-07
7.45234e-07
6.58005e-07
6.29317e-07
6.02482e-07
5.43876e-07
4.79434e-07
4.30612e-07
1.25431e-06
1.35495e-06
1.37812e-06
1.31013e-06
1.25533e-06
1.2153e-06
1.15668e-06
1.14932e-06
1.07682e-06
9.78694e-07
9.04668e-07
8.19195e-07
7.63988e-07
6.52725e-07
6.6482e-07
6.14383e-07
5.14698e-07
4.40949e-07
3.98132e-07
1.42758e-06
1.28069e-06
1.26593e-06
1.29167e-06
1.26428e-06
1.15237e-06
1.12282e-06
9.86497e-07
9.21505e-07
9.99067e-07
8.76977e-07
8.07229e-07
7.34406e-07
6.73669e-07
6.58069e-07
5.8531e-07
5.27184e-07
4.6553e-07
4.29702e-07
1.29495e-06
1.45752e-06
1.43692e-06
1.39131e-06
1.31714e-06
1.25814e-06
1.20467e-06
1.11304e-06
1.05487e-06
1.01971e-06
9.37647e-07
8.39699e-07
7.46849e-07
6.74254e-07
7.06752e-07
5.82236e-07
4.86642e-07
4.25441e-07
4.2187e-07
1.20992e-06
1.39591e-06
1.42473e-06
1.28166e-06
1.34449e-06
1.22121e-06
1.16149e-06
1.06063e-06
1.08807e-06
9.85943e-07
9.15681e-07
8.13877e-07
7.46066e-07
6.92456e-07
6.52417e-07
5.83113e-07
5.0898e-07
4.54376e-07
4.31412e-07
1.29597e-06
1.43916e-06
1.48713e-06
1.41726e-06
1.36709e-06
1.30025e-06
1.23305e-06
1.13342e-06
1.0662e-06
1.0311e-06
9.27866e-07
8.495e-07
7.53445e-07
7.14032e-07
6.78303e-07
5.55909e-07
4.60919e-07
4.39634e-07
4.5497e-07
1.25346e-06
1.58707e-06
1.51227e-06
1.40782e-06
1.34036e-06
1.27387e-06
1.03886e-06
1.02798e-06
1.08617e-06
1.01314e-06
9.16522e-07
8.23125e-07
7.46051e-07
6.79481e-07
6.65051e-07
5.9197e-07
5.02062e-07
4.73977e-07
4.67253e-07
1.39146e-06
1.57101e-06
1.54575e-06
1.46239e-06
1.4074e-06
1.31465e-06
1.20183e-06
1.1538e-06
1.09269e-06
1.03196e-06
9.57163e-07
8.80281e-07
7.87749e-07
7.07621e-07
6.70721e-07
5.62435e-07
4.7097e-07
4.81879e-07
4.64583e-07
1.33977e-06
1.53077e-06
1.50845e-06
1.3553e-06
1.33056e-06
1.29529e-06
1.16577e-06
1.17341e-06
1.00388e-06
1.01187e-06
9.06124e-07
8.91197e-07
7.72806e-07
6.79916e-07
6.79614e-07
5.93711e-07
5.00834e-07
4.86686e-07
4.74216e-07
1.39736e-06
1.58309e-06
1.60419e-06
1.48854e-06
1.43952e-06
1.36019e-06
1.28474e-06
1.22972e-06
1.11813e-06
1.04679e-06
9.79142e-07
8.56367e-07
8.24082e-07
7.18519e-07
6.69707e-07
5.63128e-07
5.35759e-07
5.08893e-07
4.56417e-07
1.50736e-06
1.5803e-06
1.58608e-06
1.55124e-06
1.34662e-06
1.32878e-06
1.26442e-06
1.1495e-06
1.12184e-06
1.10012e-06
8.86467e-07
9.04844e-07
7.74157e-07
6.96695e-07
6.70397e-07
6.06199e-07
5.07763e-07
4.8287e-07
4.51278e-07
1.48871e-06
1.60924e-06
1.64622e-06
1.55397e-06
1.44539e-06
1.38148e-06
1.36206e-06
1.19595e-06
1.15668e-06
1.14395e-06
9.61416e-07
8.74976e-07
8.24808e-07
7.45381e-07
6.70595e-07
5.96284e-07
5.63264e-07
5.13258e-07
4.52863e-07
1.40682e-06
1.52473e-06
1.52383e-06
1.51719e-06
1.42809e-06
1.31634e-06
1.215e-06
1.0902e-06
1.17269e-06
1.07332e-06
9.24325e-07
8.73921e-07
8.16456e-07
7.36341e-07
6.54534e-07
5.89841e-07
5.36626e-07
5.01667e-07
4.5364e-07
1.46521e-06
1.64527e-06
1.63139e-06
1.61736e-06
1.53998e-06
1.44998e-06
1.32006e-06
1.21471e-06
1.18466e-06
1.10622e-06
9.88165e-07
9.10666e-07
8.17144e-07
7.70402e-07
6.71384e-07
5.8838e-07
5.6819e-07
5.16926e-07
4.49347e-07
1.65773e-06
1.79368e-06
1.66301e-06
1.62152e-06
1.42674e-06
1.45508e-06
1.31889e-06
1.18842e-06
1.27146e-06
1.00768e-06
9.58887e-07
8.76614e-07
7.97967e-07
7.4034e-07
6.72528e-07
5.81597e-07
5.47632e-07
5.24898e-07
4.61121e-07
1.57005e-06
1.77147e-06
1.69042e-06
1.60353e-06
1.53872e-06
1.47682e-06
1.36775e-06
1.28153e-06
1.20139e-06
1.10048e-06
1.01525e-06
9.20173e-07
7.89181e-07
7.48961e-07
6.88215e-07
5.89492e-07
5.52069e-07
5.2471e-07
4.2861e-07
1.65015e-06
1.76141e-06
1.61264e-06
1.64737e-06
1.59345e-06
1.50891e-06
1.29156e-06
1.33608e-06
1.12039e-06
1.05044e-06
9.55852e-07
9.33475e-07
7.99749e-07
7.41431e-07
7.05047e-07
5.87483e-07
5.5849e-07
5.40124e-07
4.92576e-07
1.5614e-06
1.73107e-06
1.70986e-06
1.72608e-06
1.61313e-06
1.51414e-06
1.3973e-06
1.29802e-06
1.15243e-06
1.07311e-06
1.00394e-06
8.91051e-07
8.19932e-07
6.94763e-07
6.82606e-07
5.98348e-07
5.52333e-07
5.40127e-07
5.01767e-07
1.70608e-06
1.85065e-06
1.8272e-06
1.64632e-06
1.47573e-06
1.4698e-06
1.41432e-06
1.28654e-06
1.17269e-06
1.11018e-06
9.80914e-07
9.43648e-07
8.09151e-07
7.20409e-07
7.27212e-07
6.54776e-07
6.03681e-07
5.76229e-07
5.42439e-07
1.61281e-06
1.82106e-06
1.79844e-06
1.69561e-06
1.59798e-06
1.51504e-06
1.41209e-06
1.27903e-06
1.18595e-06
1.152e-06
1.0609e-06
9.12697e-07
8.73533e-07
7.22611e-07
6.79502e-07
6.70997e-07
5.66732e-07
5.27761e-07
5.07483e-07
1.81944e-06
1.89241e-06
1.77168e-06
1.81506e-06
1.69654e-06
1.41164e-06
1.27894e-06
1.33133e-06
1.29459e-06
1.12212e-06
9.83562e-07
9.29432e-07
8.54766e-07
7.62612e-07
7.2903e-07
7.21191e-07
6.57615e-07
6.19494e-07
5.85532e-07
1.66742e-06
1.85362e-06
1.75263e-06
1.74196e-06
1.64137e-06
1.47362e-06
1.37125e-06
1.27177e-06
1.25492e-06
1.17183e-06
1.03467e-06
9.6742e-07
8.71874e-07
8.03016e-07
7.15326e-07
7.11172e-07
6.27627e-07
5.48841e-07
5.3201e-07
1.80381e-06
1.87147e-06
1.79994e-06
1.71149e-06
1.66437e-06
1.53231e-06
1.46206e-06
1.3225e-06
1.42051e-06
1.0303e-06
1.01014e-06
9.63888e-07
8.61796e-07
8.02228e-07
7.39433e-07
7.39354e-07
6.74032e-07
6.16598e-07
5.97144e-07
1.58531e-06
1.83103e-06
1.78791e-06
1.71306e-06
1.60221e-06
1.50465e-06
1.43007e-06
1.34879e-06
1.27214e-06
1.12713e-06
1.05406e-06
9.84379e-07
8.67032e-07
8.23381e-07
7.58904e-07
7.09127e-07
6.87378e-07
5.88366e-07
5.40438e-07
1.77966e-06
2.07062e-06
1.85123e-06
1.81005e-06
1.51172e-06
1.56666e-06
1.52545e-06
1.37756e-06
1.26768e-06
1.14697e-06
1.03131e-06
9.37516e-07
9.13635e-07
7.96882e-07
7.65277e-07
7.07952e-07
6.90433e-07
6.1964e-07
5.76891e-07
1.61131e-06
1.7544e-06
1.7282e-06
1.66208e-06
1.56886e-06
1.50117e-06
1.45195e-06
1.36326e-06
1.23228e-06
1.15619e-06
1.09255e-06
9.23584e-07
8.89604e-07
8.00599e-07
7.77392e-07
6.79348e-07
6.82218e-07
6.1341e-07
5.17754e-07
1.77913e-06
2.00599e-06
1.8243e-06
1.93978e-06
1.68709e-06
1.61927e-06
1.44366e-06
1.26814e-06
1.3078e-06
1.24678e-06
1.06677e-06
9.83449e-07
8.98689e-07
8.24734e-07
7.61223e-07
6.86041e-07
6.71954e-07
6.19576e-07
5.50564e-07
1.5797e-06
1.73776e-06
1.77868e-06
1.70918e-06
1.64883e-06
1.59011e-06
1.48594e-06
1.37807e-06
1.27404e-06
1.27019e-06
1.10996e-06
9.8587e-07
8.88433e-07
8.15602e-07
7.64014e-07
6.83865e-07
6.28478e-07
6.13539e-07
5.22442e-07
1.11643e-06
1.22792e-06
1.37833e-06
1.04705e-06
9.32571e-07
8.92827e-07
8.03783e-07
7.56639e-07
7.37676e-07
6.60923e-07
6.11118e-07
6.27703e-07
5.80815e-07
5.34845e-07
5.51696e-07
5.20225e-07
4.71137e-07
4.52634e-07
4.72211e-07
8.91665e-07
1.06364e-06
9.99758e-07
9.131e-07
8.51018e-07
7.69307e-07
6.9788e-07
7.19798e-07
6.5583e-07
5.92835e-07
5.78022e-07
5.7711e-07
5.31007e-07
5.16035e-07
5.20108e-07
4.7369e-07
4.50127e-07
4.33098e-07
4.49625e-07
9.77373e-07
1.03032e-06
9.09851e-07
8.70209e-07
7.96887e-07
6.96639e-07
6.02465e-07
5.99215e-07
5.57693e-07
5.12961e-07
5.09915e-07
5.19419e-07
4.85782e-07
4.86222e-07
4.78988e-07
4.3833e-07
4.16123e-07
4.30124e-07
4.54184e-07
1.20322e-06
1.19351e-06
1.00949e-06
7.749e-07
6.53601e-07
5.71956e-07
5.06891e-07
5.24899e-07
5.04682e-07
4.60799e-07
4.6333e-07
4.70741e-07
4.55035e-07
4.56244e-07
4.52854e-07
4.05252e-07
3.75932e-07
3.98791e-07
4.41765e-07
1.04787e-06
1.1789e-06
9.39028e-07
7.44253e-07
6.43966e-07
5.25694e-07
4.79276e-07
4.53463e-07
4.47748e-07
4.22867e-07
4.31553e-07
4.30516e-07
4.26473e-07
4.25101e-07
4.09482e-07
3.87721e-07
3.64175e-07
3.82296e-07
4.24034e-07
8.86898e-07
1.1428e-06
8.18422e-07
6.50584e-07
4.67701e-07
4.30575e-07
4.22857e-07
3.97102e-07
3.92581e-07
4.01305e-07
3.8234e-07
3.95062e-07
4.05015e-07
3.95048e-07
3.84326e-07
3.75682e-07
3.65793e-07
3.76235e-07
3.91044e-07
1.181e-06
1.0541e-06
7.33163e-07
5.54098e-07
4.61495e-07
3.98238e-07
3.57644e-07
3.55425e-07
3.75376e-07
3.65344e-07
3.67525e-07
3.73475e-07
3.80671e-07
3.84475e-07
3.76804e-07
3.61816e-07
3.40353e-07
3.61986e-07
3.76234e-07
6.90822e-07
9.35304e-07
6.47534e-07
5.75677e-07
3.89299e-07
3.45607e-07
3.30563e-07
3.1985e-07
3.20596e-07
3.53417e-07
3.50603e-07
3.60421e-07
3.82262e-07
3.87269e-07
3.65294e-07
3.50055e-07
3.33432e-07
3.71918e-07
3.52153e-07
1.08162e-06
1.01887e-06
6.75087e-07
5.31175e-07
4.13029e-07
3.64702e-07
2.83872e-07
3.05103e-07
3.41523e-07
3.34742e-07
3.53487e-07
3.65997e-07
3.88863e-07
3.92595e-07
3.82412e-07
3.43184e-07
3.30539e-07
3.78659e-07
3.49043e-07
8.36173e-07
7.45495e-07
7.15892e-07
5.3979e-07
4.24682e-07
3.5366e-07
3.33046e-07
3.11321e-07
3.456e-07
3.49391e-07
3.6566e-07
3.62666e-07
3.88257e-07
3.78458e-07
3.79574e-07
3.29961e-07
3.3118e-07
3.60202e-07
3.34323e-07
8.90819e-07
9.058e-07
8.08041e-07
5.50738e-07
4.71164e-07
4.06306e-07
3.71114e-07
3.30732e-07
3.60929e-07
3.4896e-07
3.7963e-07
3.74038e-07
3.95004e-07
3.7149e-07
3.96996e-07
3.58345e-07
3.14331e-07
3.25299e-07
3.22076e-07
1.0023e-06
1.03263e-06
6.72573e-07
5.7703e-07
5.83675e-07
4.2603e-07
3.96173e-07
3.76385e-07
3.72374e-07
3.81243e-07
4.00896e-07
3.92635e-07
4.2727e-07
3.80992e-07
4.10903e-07
3.7915e-07
3.33184e-07
3.07315e-07
3.04101e-07
1.09695e-06
1.02801e-06
8.32946e-07
7.52241e-07
6.0448e-07
5.07778e-07
4.66852e-07
4.3375e-07
4.37183e-07
4.35426e-07
4.18754e-07
4.15811e-07
4.3444e-07
3.79204e-07
3.72606e-07
3.88583e-07
3.4154e-07
3.18491e-07
3.03022e-07
9.81408e-07
1.10273e-06
1.01637e-06
7.13245e-07
5.98632e-07
5.84695e-07
5.1349e-07
4.75773e-07
4.65128e-07
4.63027e-07
4.33474e-07
4.17734e-07
3.83146e-07
3.96815e-07
3.66104e-07
3.50569e-07
3.49484e-07
3.29002e-07
3.1954e-07
1.03185e-06
1.03373e-06
9.90757e-07
9.36109e-07
8.04973e-07
5.85828e-07
5.14236e-07
4.95844e-07
4.84646e-07
4.36997e-07
4.10101e-07
4.05639e-07
3.75353e-07
3.89942e-07
3.57825e-07
3.49313e-07
3.45731e-07
3.46251e-07
3.29089e-07
1.0958e-06
1.14277e-06
1.14725e-06
8.80912e-07
8.36448e-07
5.98872e-07
5.20283e-07
4.79959e-07
4.60929e-07
4.34106e-07
4.17936e-07
3.95426e-07
3.72352e-07
3.75232e-07
3.6836e-07
3.57684e-07
3.63145e-07
3.53648e-07
3.6093e-07
1.02896e-06
1.19002e-06
1.08389e-06
9.32748e-07
7.50093e-07
5.57751e-07
5.07195e-07
4.63089e-07
4.27078e-07
4.26608e-07
4.15363e-07
4.09823e-07
3.8557e-07
3.69277e-07
3.81025e-07
3.75882e-07
3.82523e-07
3.86967e-07
3.79951e-07