/*--------------------------------*- C++ -*----------------------------------*\
| =========                 |                                                 |
| \\      /  F ield         | foam-extend: Open Source CFD                    |
|  \\    /   O peration     | Version:     3.1                                |
|   \\  /    A nd           | Web:         http://www.extend-project.de       |
|    \\/     M anipulation  |                                                 |
\*---------------------------------------------------------------------------*/
FoamFile
{
    version     2.0;
    format      ascii;
    class       volScalarField;
    location    "172800";
    object      sigmaSum;
}
// * * * * * * * * * * * * * * * * * * * * * * * * * * * * * * * * * * * * * //

dimensions      [1 -1 -2 0 0 0 0];

internalField   nonuniform List<scalar> 
21211
(
79184
79208.3
79282.5
79390
79399.6
80241.6
81855
85141.9
93892.5
91097
91106.3
91093.6
91498.6
91617.2
92221.6
93005.5
96523
115737
80475.9
80499.6
80567.3
80674.6
80757.8
81511.1
83023.5
85813.5
97487.8
88500.2
88505.3
88524.7
88903.3
89115
89687.2
90627
94312.8
112229
82200.4
82220.8
82293.2
82415.4
82611
83427.2
85145.2
90057.5
102300
91180.2
91182.5
91174.3
91607.3
91855
92470.1
93514.9
97369.5
114914
86339.7
86364.6
86440.3
86557.7
86790.2
87620.1
89259.7
92262.9
106142
94724.8
94735.2
94769.7
95102.6
95349.1
95954.1
97055.1
100574
118312
87568.7
87588.7
87675.4
87830.8
88172.7
89067.1
90985.9
97462.7
113366
94768.9
94766.4
94834.2
94984.2
95263.2
95881
96896.5
100640
117483
97460.7
97485.1
97570.7
97720.4
98044.3
99001.2
100720
104484
120682
98815.6
98818.2
98891.9
99055
99341
100015
101305
105121
121470
95319.4
95349.5
95450.6
95681.5
96474.8
97088
99446.3
107294
125143
105794
105775
105849
106020
106371
107055
108311
112364
129749
111569
111601
111747
111976
112414
113362
115316
119318
135749
111422
111410
111480
111657
112019
112688
114086
118048
134639
111181
111191
110611
110897
111417
112909
115281
123481
141482
122532
122498
122550
122722
123075
123764
125077
128795
144533
131077
131099
130969
131263
131835
133051
133873
138174
156872
131612
131588
131647
131839
132233
132961
134412
138739
155498
131843
131929
132501
132771
133333
134836
151264
148363
164547
140040
140048
140122
140303
140670
141589
143580
146673
162380
163085
163161
163326
163616
164198
164669
134096
166371
185423
152805
152827
152926
153135
153567
154400
157276
160844
176577
172305
172402
172516
172755
173247
174159
178690
184832
202757
159133
159195
159306
159538
159985
160831
162484
167045
183812
194107
194171
194284
194529
195030
196094
198568
203989
221047
171267
171317
171433
171682
172172
173137
175112
179776
196763
222437
222502
222623
222880
223404
224487
226783
231705
244615
187139
187203
187335
187611
188155
189209
191280
195691
208812
236489
236573
236705
236981
237533
238643
240931
245807
259573
198374
198436
198575
198864
199423
200480
202477
206482
218533
250530
250621
250757
251036
251588
252693
254972
259837
274607
208881
208952
209100
209406
209992
211094
213188
217499
230892
264048
264154
264296
264581
265135
266226
268434
273041
285953
215732
215803
215957
216275
216879
218003
220126
224526
238334
266750
266861
267005
267291
267845
268925
271068
275220
284868
224009
224092
224259
224601
225250
226460
228723
233178
246407
105522
105551
105637
105807
106428
107608
109219
115890
119334
92820.6
92793
93196.8
93498.9
84168.1
95547.8
96319.8
89652.3
96044.3
83009.7
82399.7
89781.2
89178.6
84673.7
83754.6
85065.5
91306.5
91509.6
97328.6
97450.9
103477
103933
104002
99078.5
100527
112611
109244
101050
101019
101308
101311
101580
102782
104210
108367
103551
86016.8
86013.5
86586.8
86789.2
87044.9
87619.9
88916.3
92711.8
91287.8
84563.1
84589.3
84809.8
85247.5
85465.6
86002.3
87242.9
90558.2
87136.9
81909.6
81931.2
81954.9
82452.3
82669.9
83156.7
84272.4
87418.8
84490.1
77136.4
77161.2
77207.8
77464.2
77723.7
78194.5
79283.3
81506.7
79691.9
85924.4
85947
85995.1
86072.5
86624
87039.9
88079.7
90593.5
87631.8
75216.9
75250
75298.9
75398.8
75767.7
76012.9
77115
79256.4
81239.1
95049.3
95068.8
95119.4
95226.3
95429.8
96125.8
97228.4
99495.4
100679
98634.1
98670.8
98712.4
98804.3
99006.6
99741.7
100934
103224
104245
109740
109770
109815
109915
110131
110622
111757
113827
114345
121721
121754
121802
121908
122132
122623
123708
125539
126100
128994
129030
129083
129195
129428
129930
131022
132915
133564
129518
129557
129614
129735
129986
130518
131671
133798
136015
117034
117076
117139
117272
117541
118103
119282
121453
125425
116484
116524
116591
116729
117010
117593
118804
120834
121931
84808.5
84826.6
84903.9
85012.6
84906.7
85471.8
86169
88281.7
106525
77385.8
77405.2
77573
77723.5
78159.7
78365.8
79165.7
82447.6
99676.8
79777
79685.2
79210.7
79704.1
79982.8
80889.1
81222.4
82166.2
105151
81209.7
81262.1
81275.6
81409.1
81600.9
82011.5
82537.4
84939.5
106293
78336.5
78327.2
78271.3
78228.2
78413.1
78807.6
79243.4
80794.3
100936
71972.3
71966.8
71991.2
72100.9
72289.4
72628.8
73191.7
75240.2
91377.7
70811.5
70809.9
70852
70943.1
71126.4
71431.3
71770.9
73147.5
92055
70370
70365.4
70397.9
70455.5
70611.4
70878.1
71327.5
72849.1
91273.9
71608.3
71607.7
71643.8
71719.4
71869.9
72153.2
72462.1
73555.7
92088.6
74370.8
74370.5
74407.5
74488.8
74627.4
74939.7
75546.8
77075.8
92357.5
77584.6
77591
77629.1
77710.8
77864.7
78192.3
78665.7
80233.1
94285.9
82147.9
82157.9
82197
82282.4
82449.4
82753.2
83424.8
85394.9
98960.9
85833.5
85857.3
85905.8
86008.6
86214.5
86608.5
87456.8
89814.2
103129
90200.8
90223.5
90277.2
90390.8
90618.1
91070.8
92023.6
94477.9
106272
94821.5
94846.7
94907.6
95037
95294.7
95804.9
96852.1
99359.2
109732
96782
96809.2
96875.2
97014.5
97289.7
97828.7
98915.4
101352
110095
97344.7
97376.5
97449.2
97601.8
97902.5
98493.8
99706.7
102465
110780
94830.3
94860.8
94933.3
95084.7
95380.7
95957.4
97142.4
100013
110376
95571.5
95608.2
95689.2
95858.9
96191.6
96842.7
98166.6
101109
110118
71340.1
70965.4
67032.7
64012.5
61945
59548.8
55980
54915.6
53684.4
52332.1
50985
49500.1
49264.1
50739.7
52025.1
51870.1
53639
53407.6
52214.3
69837.3
62264.9
60579.4
58128.2
54403.2
52566
50589.6
48737
47009.6
45486.2
42906.4
42322.8
44834.4
48467.1
51722.4
52161.5
48997.9
48220.1
49773.9
71696.3
70361.4
68540.9
61851.2
58379
56591.4
53616.3
51526.3
50396.2
49015.9
48803.8
49203
50284.5
51881.9
54137.3
54159.8
49462.3
49258.3
50805.9
67361.8
60256.4
55006.9
54802.7
53435.9
51179.9
49875.4
48148.5
47211.1
46066.3
43508.2
41519.2
42335.1
47208
50923.3
51395.8
49962.4
46491.1
46020.5
73523.3
65329.9
62562
61257.4
56187.4
53529.8
51773.9
50069.3
48056.9
47470.6
47083.9
48193.2
50870.5
53231.2
53332.8
52588.4
49913.7
46228.1
48346.8
64308.8
61105.7
53692.9
48464.3
49506.4
50152.8
49052.3
48415.5
47164.6
48780.3
44729.8
43366.7
41572.9
44970.7
47459.3
48210.6
48278.9
47500.5
45277.4
71202.7
66730.2
58277.4
55597.7
54831.7
52819
51507.5
51199.8
49673.6
47206.9
47142.7
48585.5
50202.2
51892.3
51452.3
47760.5
49410.3
48368
47127.6
59718.5
58456.8
54388.5
47738.8
45739
46549.3
49558.6
49610.5
48910.5
45878.6
45987
43288.4
46525.2
44105.7
43506.7
44351.3
45407.4
46467.6
47225.9
67421
64916.7
60603.1
50705.9
51636.1
53889.6
50403.9
51763.6
53762.5
51649
50329
51070.1
49285.6
48769.7
48381.2
48493.7
45853.7
48615.1
49924.6
57997.7
53643.7
50859
52669
51434.3
47432.7
46100.7
49893.4
50181.8
49731.7
44883.2
52956
47571
48264.3
42959.4
40487
43043.1
44751.7
47432.5
64348.5
62880.8
60329.6
54495.5
50982.5
54142.9
53235.2
51096.5
52179.5
54841.4
53793.4
53170.6
50003
45136.9
45283.7
48042.2
49395.5
50040.4
52499.9
59577.1
57035.9
54050
53388.1
52677.4
48638.2
45070.5
46838.2
46396.3
50391.4
51447.9
49698.1
51378.9
48528.9
43562.7
40130.4
40169.7
42874.3
46315.6
66989.6
64131
62900.2
61129.4
57836.4
54961.6
53258.9
55737.9
52836.8
52600.1
56036.9
54092
49654.3
45788.5
43743.7
47026.8
50906.3
52963.9
57023.2
63628.9
59761.9
56085.4
52741.6
48247.5
56902.8
49428.9
46079.7
47939.6
49336.5
51597
51797.5
48663.8
48095.3
46471
40550.1
39734.8
41231.7
45593.6
71153.9
67294.3
65087.6
63146.4
61927.1
60464.1
51305.6
54115.7
56508
55258.9
54222
54135.6
48654.8
46906.5
44889.3
48022
51874.5
57372.3
60431.3
64012.2
59921.6
57038.9
52378.8
48044.4
46956
59197.8
50837.2
49009.4
47552
47892.6
48771
49227.5
44651
45019.2
43905.8
42922.2
43649.3
47043.3
72896.5
69657.5
65669.1
62424.2
59816.3
58352.5
59534.8
53419.4
56697.7
56488.6
51087.7
48487.9
49645.3
46351.6
47272.6
51174.3
55714.6
58580.2
58744.6
64079.3
60502.3
54813.4
60691.9
52404.2
49728
49107.7
62402.9
51761.6
47487.5
44009
43387.3
47389.7
47725
45695.3
43757.2
45914.2
48607.2
52211
73792.7
68854.8
65563.5
62302.9
60518.4
59658.9
60263.9
59075.9
53406.1
51445.8
52819.4
47430
49715.3
51157.2
51798.3
54181.8
56546.9
56213.9
55089.1
64869
60843.7
56557.3
52082.8
61480.7
55748.3
52902.4
49929.5
58624.4
49291.4
46288.3
44481.7
44698.3
48370.7
46983.3
47982.2
50013.4
53553.3
54898.8
73510.6
68790.7
64574.5
62860.8
61218.9
62912.3
62844.6
59638.3
53593
50152.8
48611.7
54210.4
51013.2
55943.9
54395.3
54417.3
54268.6
53800.8
54828.3
66543.3
62533.3
56969.1
62915
59279
58603.5
52688.9
50543.8
46075.8
52647.7
46201.3
41894.3
43227.3
48103
49798.5
51054.3
53164.7
54267
52275.1
77190.9
71492.5
66202.1
63378
64616.9
64776.4
60640.8
55926.9
52565.6
52239
51295.6
53074.2
56313.8
55255.5
54589.5
53015
53128
53919.5
53770.1
68544
65049.2
61756.2
61937.9
60661.3
54092.6
58618
51593.6
48456
43391.6
52114.4
45264.7
44404.5
47041.8
51337.5
52288.7
52766.2
51291.5
50843.9
81867.2
76962.4
72488.5
69597.6
67207.3
62236.4
57671.1
54585.1
51831.3
52383.6
53001.9
51217.2
56615.8
57544.7
54252.8
54090.8
54377.2
55555.3
54888.1
72293.2
68364.4
67373.2
65179.1
57502.2
61520.5
51921.6
54798.8
48275.4
44154.9
44761
48056.9
46578.8
49163.6
50319.5
51931
51104.4
50653
50336.9
86285.3
82680.3
80277.3
76440.5
68020.1
59669.4
56378
53813.1
52796.2
52832.2
56818.2
57917.4
57393.4
60473.9
57177.9
56464.4
56693.6
57139
56429.3
76183.6
74465.6
71305.5
65680
66314.4
54855.6
57659.5
48347.3
52710.9
47997.6
43516.3
48124.9
48294.7
53742.3
52158.7
50778.3
52071.9
51462.5
51786.4
91538.4
90047
86048.3
76645.1
65594.2
60791.6
55385.4
54916.6
54914.6
56540.4
59279.7
62401.3
62425
60394.6
60011.6
60966.4
60256
59480.5
57251.7
81986.2
78994
72857.5
70062.6
58447.5
62722.4
50642.5
54799.6
49063.6
48493.7
47319.6
45264.1
49931.6
55941.7
56013
51760.1
51826.7
53765.7
53677.1
98054.9
94549.7
86591.7
79389.8
82105.6
59436.3
58691.9
56967
59316.3
61714
63597.1
65306.3
68219.7
63511.2
60033.9
61377.7
64682.4
63956.5
61723.4
86768.2
81294.9
73314.3
75406.4
68205.4
57249.7
60200.5
52348.4
52009.8
51546.7
52140.2
51810
52994.5
57140
60454.8
56288.2
52323.1
53894.5
56181.2
99229.6
92552.5
84798
74509.1
77651.5
84270.1
64453.3
62319.6
63679.2
67635.1
67940.1
68155.9
69379.1
74191.1
66350.3
62652.1
64609.9
67448.2
62726.5
86239.8
80707.6
75081.3
63153.6
75669.5
66564.6
57747.3
58771
54270
53333.7
56293.1
57582.3
58834.3
60813.2
60256.7
61345.7
57443.4
54521.8
56899.1
95261.8
87018.9
85165.9
82704.5
78986.1
78262.8
72822.8
68457.8
68473.2
71954.7
71396.3
71201.2
73930.9
73639.1
71825.7
70543.1
66702.4
68276.8
69548.8
83680.9
79797.8
75532.9
72832.2
64589.1
74306.6
63336.3
61516.2
58969.6
59605.5
61127.8
62844.2
63789.4
65509.4
62363.7
62393.6
63724.9
60093.2
59193.1
91202.6
99011.1
86665.4
85010.4
83764.5
81480.2
80459.5
75090
75258.5
76079.5
75485.6
75844.6
81091.3
77012.9
75526.1
75845.2
74490
68322.4
65947.7
80929
78843.4
75614.9
72837.7
77827.9
61741.2
78164.1
62650.4
65616
65076.8
67507
67999.6
67823.3
70351.1
67637.2
64475.8
66829
67694.8
64293.9
135808
166466
181909
178704
170285
163148
154197
146322
139403
128252
118530
112621
104375
94353.9
91701.5
85867.7
76954.1
72096.1
73188.7
150922
168009
175287
172291
163658
148649
137939
137041
124737
112742
108476
100716
93516.9
89847.7
84399.8
77319.7
77412.1
73221.8
68578.9
141375
164628
182004
181362
175332
168478
157830
147421
139344
129000
120225
117449
104735
103814
99644.2
92118.4
80648.1
78674.2
76702.7
168529
172435
175342
174362
165108
156833
146385
138383
131837
120406
111891
98070.5
94082.8
92118.8
83892.3
75416.9
78074
75344.1
71597.2
141248
164537
187373
190498
183150
173952
164687
156269
143457
134322
121439
112063
104555
105648
105093
87789.7
85053.8
83965.6
78264
160795
169088
177303
179690
177440
171515
150862
141827
131736
121966
113971
104874
102332
96839.3
84510
83924.3
83788.1
75081.8
68529
149126
167051
199748
196961
189363
182118
166207
156919
148651
140025
120822
117345
108111
107845
103849
91761.7
91680
87022.2
78063.8
154273
174127
185320
189485
182779
171741
161473
149585
133733
129620
117690
111151
104804
97097.2
88251.9
90328
83466
76037.4
67125.6
155577
179146
208655
199658
187085
182817
168798
157406
148750
137673
133407
120019
113755
109987
102775
100002
94615.1
86916.6
74695.3
157364
184748
195330
194155
185277
173049
163390
156013
142574
133788
117131
115102
108069
94941.1
93223.6
92587.3
83667.9
73906.5
63863
160857
179354
226933
206475
210385
184944
175173
171229
155995
139297
128818
127076
116747
108538
102647
99458.9
96578.6
84577.2
72425.3
154484
188458
198738
196679
187554
182783
169848
158670
143762
136940
126961
118360
107844
94520.5
96234.9
92204.7
80676.8
70928.9
62831.2
173129
186782
213717
213734
208569
194625
188528
173990
159802
147664
138720
126777
115779
110234
108411
104534
94615.8
81278.5
72310.4
167737
194988
210570
207588
195268
188652
174264
158973
149073
145002
136856
119697
108036
98842.7
101868
90497.2
79006.5
68298.1
66281.3
161686
230681
244821
212643
248563
206372
189054
175316
165998
148285
143252
126721
118769
113629
109764
102691
90438
77045.1
71959.3
169796
203548
220728
207899
200793
199607
187813
167337
148993
145043
130999
119185
108292
105099
102918
87917.6
73202.3
70822.5
69023.9
181113
248023
245633
244689
251131
229053
183437
177129
173682
153743
144245
129089
122466
108809
109193
100398
85189.9
76759.2
75361.3
184927
214599
227156
222448
208561
196458
183769
175637
157721
149302
134531
123256
114156
107214
101169
83948.1
72159.5
73546.1
69193.3
194502
275738
275830
237408
239393
222465
191719
200272
169031
153264
142087
140879
126373
107347
108662
97994.3
81171.4
77884.3
77558.4
195436
228463
243490
238030
222782
204556
192786
182918
164473
157920
136727
123718
119279
106562
97582.6
82260.9
79081.1
75881.5
69902.3
202751
275748
285012
293123
237078
246480
232416
194334
175253
167569
142565
140383
126273
109618
108984
101882
85293
83697.6
78733.7
203626
242447
249797
243976
220571
212258
213279
181475
170865
161774
135346
125618
117833
109112
97663.7
86256.5
84234.5
78737.1
71617.7
222586
267470
296378
282786
279887
248280
215904
194777
191174
167495
147023
136620
132351
120463
113243
101332
93349.4
90993.6
84551.8
232613
257530
263796
258775
243216
229684
204506
187144
181044
159442
146009
129150
116375
111941
99331.8
89561.5
86879
81278.6
72839.8
227465
287218
327165
314516
251763
268549
240679
201497
216871
163383
154740
143182
135631
121487
113160
102991
94043.7
93332
87309.4
219825
257386
281035
266881
245641
225617
210719
209296
182534
165918
148184
129835
117513
112505
102766
90106.8
86970.3
83016.8
75887.1
263703
288106
309860
333327
323478
291123
224794
239201
187167
171871
157580
151154
134273
122815
115794
106796
95096.1
95079.2
89854.1
238319
270525
290721
285816
262506
241617
223206
200089
183470
173277
155338
132946
124351
110611
103985
94855.4
89340.6
85734.1
81992.5
252446
341120
362541
310976
273710
274165
251361
222020
196741
184973
164895
154326
136110
122411
117734
109153
102574
99240.7
95555.8
242059
279546
288939
280419
266404
246470
224547
204275
194336
185494
162168
138442
129973
115496
105775
102339
90784.1
87170.5
83914.6
261874
354982
348887
354669
340811
256936
226907
230160
208390
189195
167522
155707
143009
131867
120027
116945
109129
105313
101018
247530
275026
304106
299661
265858
244982
237066
210290
206012
187768
159358
146461
131299
124626
114759
107739
98219.4
90725.3
89275.2
281939
357404
345146
343337
319541
276421
263554
226582
239561
180849
173673
161197
145196
136282
125213
119671
116921
105559
102348
270675
294933
311493
299481
277163
255749
237956
229831
205613
177494
165275
150887
133915
126860
120880
109834
104816
94876.9
91209.2
355758
367478
354139
344212
268947
277678
265755
228449
205738
195752
178836
159430
152587
133558
130303
117650
113144
107730
100703
275698
305916
317618
311531
289975
258084
244783
229098
201974
186440
169310
149053
139395
125631
121327
109656
105589
97467.8
88170
292005
351951
362710
362893
307078
278635
244213
219731
211905
201907
178834
165210
151041
138660
128518
120783
110498
106255
98423.8
286752
312179
328548
304348
287787
262878
243396
231963
207156
193412
166579
157237
138678
127938
119307
110442
101539
95668.8
85522.6
134180
164125
180483
180030
168780
163103
145095
135339
130408
119135
105847
105189
97272.3
89173
88744.5
89149.4
77319.4
71065.2
75153.5
125398
170419
177770
171851
157707
150921
133889
124622
115603
103619
97336.3
94396.1
88944.3
79546.2
80824
77497.6
73833.1
68124.9
71010.9
135965
169381
165654
163890
150521
139852
114295
105685
97845.1
86635.2
84434.9
86291.7
77387.1
76948.8
76944.8
72817.4
67006.8
67896.6
69544.8
139123
163626
179400
150044
134649
115430
99594.6
90056.8
85844
78060.4
75722.1
75913
73784.2
72479.5
70059.5
65376.8
60380.7
64372.4
67882
123985
156229
169064
142901
132061
99260.9
89601.1
78193.8
72537.1
69807.3
68732.8
68246.6
67520.5
64657
63869.4
60961.2
56978.6
60569.4
65469.5
113375
156819
153733
137059
104568
89607.2
78234.1
70403.2
62554.9
65857
64392
65275.4
64457.5
60976.2
62059.6
58706.5
56011.3
59104.3
60392.5
135134
145449
148246
119864
102562
80445.9
68223.8
60935.7
59970.2
60699.4
60822.8
61545.1
60716.2
62563.3
60722.3
56781.3
53771.1
57695.1
58650.6
108705
147727
140222
124437
93892.7
73877.3
62443.1
56837.1
54982.4
59869.5
59570.6
60299.9
61766.1
61406.6
60794.6
55014.8
53812.3
57997.4
56525
137933
159074
142023
113116
91358
71250.5
59522.8
56234.1
59633
58754.3
62354.5
62762.6
66357.5
61262.7
61571.9
54981.8
53499.1
57078.4
55164.1
124105
138248
145467
109139
90145.1
71373.4
63885.3
59687.8
63111.4
62982.5
66054.1
60109.6
66811.7
58797.6
57294.3
52993.6
53529.8
55094.6
52934.4
126906
153548
158518
119846
94703.7
77910.8
70130.5
64202.2
63707.7
64023.3
67388.9
59772.6
60611.4
56871.2
58669.4
54874.1
51867.9
52169.1
51073.8
144513
176238
141045
121599
106105
81975.1
74858.6
68211
62979.5
62146.1
63460.5
60643.2
61058.4
57029.2
59244.2
56360.3
52128.5
47763.8
49188.4
136854
162226
148520
134362
105467
88212.9
78533.2
70940.2
67432.4
64185.6
61540
62320.8
62239.5
55267.6
56542.3
57687.4
51767
48138.5
47324.2
139769
166509
166115
135900
113121
98384.9
84793.7
72903.3
68510.7
66579.9
62643.8
59143
58492
57082.2
53447.3
52653.5
51670.3
49312.2
49691.8
136215
140866
161759
150943
129351
97331.3
83342.6
77416.5
72475.2
64268.5
60848.5
59838.9
55818.4
58131.5
53362
51395.2
52594.7
51824.9
48793.7
133528
175546
199683
135392
122588
101663
85204.7
74833.3
70198.7
64691.5
60211.1
59368.3
56211.3
53713.1
55274.1
51866.6
54340.5
54000.4
53089.1
140506
162962
165183
143146
114741
94209.2
84986.2
75549.5
66311.9
63877.8
60618.8
58640.2
57826
54872.5
54531.1
55244.5
53852.6
57516.2
56467.7
173157
156751
156486
141541
118003
95835.9
82318.9
76839.9
68721.2
65162.8
64594.2
59714
60503.4
59029.4
55517.8
58204.5
55910.3
55697
56400.5
152557
166401
147256
130223
111663
96618.1
82349.9
75704.5
70495.7
64332
64583.2
61370.6
58595.3
60024.3
56152.1
53820.4
55388.5
51900.3
53874.4
149059
163196
168747
168498
156680
143845
133512
126263
112648
102451
98939.1
92072
84679.2
85858.6
80410.7
69880.8
67632.8
67416.9
65664.3
150219
179851
165879
155763
145154
126626
117416
107973
97052.5
91697.6
88100.7
82294.6
77820.5
81278.5
78006.2
69268.1
64172.7
63593.9
62591.9
152444
167904
163929
150397
131530
112284
102930
91484.6
82644
78287.4
79371
73490.1
70995.8
73902.2
69136.9
62256.5
61709.8
63216.9
65151.7
144043
159409
157224
138869
118072
96298.6
85053
78871.5
72268.7
69378.6
71539.2
67424.3
67185.6
68596
65847.3
58532.6
58684.5
60815.7
60308.5
127857
147106
151008
130667
104950
84548
74248.6
66769.5
64181
63263.3
61166.9
64559.6
61387.2
59819.4
61757.4
55944.1
55343.7
58245
59708.2
139788
150789
138946
117445
91461.4
74322.8
62924.9
58128.2
57053.2
59629.2
58078.6
58405.1
56986.5
57446.8
60046.9
53613.8
53158.8
57525.2
56388.8
123699
131869
124514
104470
82235.6
67379.8
58785.6
53571.8
52926.9
54650.6
55797.8
55800
56514.4
57508
58718.4
53021.1
51860.6
54415.1
52601.8
123987
138439
124255
103082
77704.1
64137.6
54878.7
51303.1
50870.6
52003.7
55366.4
53001.9
59130.2
57319
56489.4
51845.6
51955.8
54989.8
50377.1
125741
132432
123138
102725
73834.8
63721.6
54024.1
50703.4
52013.6
52284.1
56408.6
56168.8
61036.6
58049.2
57877.7
53307.5
51885.3
51490.3
48237.2
122776
132314
128473
101197
75196.7
64511.1
54845
54399.9
53983.3
59722.2
58081
56063
60999.8
59977.1
54210.4
55241.3
51443.6
49939.2
45990.9
128607
136532
130755
108015
80258.1
70537.9
61714.4
57150.4
59436.2
61377.2
58179.3
54959.4
59168.8
57763.6
56525.8
52818.5
49556.1
49350.7
44888.9
133162
140246
129228
111716
94378.4
80490
69648
64283.3
61590.3
58461.9
59885.3
61610.5
58697.4
55862.3
56868.7
50261.9
46866.3
49376.5
45831.6
132873
138235
132097
116025
103461
87127.3
77460.2
70115.4
66667.7
60552.7
59073.8
61247.7
56933.5
54090.9
53643.8
51207.8
46271.5
47690.2
48117.8
132375
139274
135753
123669
107244
92279.9
80964.9
68099.1
65301.9
64974
61172.8
54002.1
56089.8
50068.2
50049.6
51269.2
47970.1
45746.4
48819.3
130492
134421
136869
125557
108730
92555.3
83334.9
72898.9
65688.6
60947.7
60252
56836.6
53436
54400.7
49887.2
51055.1
50178.9
46646.4
48707
128816
132419
134206
123478
109324
92017.7
79021.2
70522.7
65812.2
59664.2
57132.1
57718.9
51079.6
53305.7
52249
48938.8
52110.9
50908.8
49230.9
127652
138107
132861
118426
105150
90552.9
79040.7
67287.7
63046.4
61759.9
56821.7
56000.6
55566.7
50934.9
54214.2
52655.6
52723
54363.8
51646.3
128983
131991
133545
121267
103817
83971.5
79656.8
70946.5
63505.9
62077.3
60281.2
56666.3
58070.1
53400.4
53531.2
55001.4
51438.4
53920.5
52373.2
125883
126334
129718
122042
105428
83927.6
76987.3
71756.8
65083.1
59395.3
60902
58690.4
55966
56022.8
52064.2
53881.7
52344.6
50711
52232.9
126792
140005
142958
126630
109666
93535
78887.9
72559.7
67899.7
61898.9
62879.2
60727.2
57228.6
58891.3
54953.4
53006.4
54906.4
51160.3
53652.5
123391
122907
124588
116461
101490
81371.7
74517.6
69945.2
63508.2
57736.3
60053.3
57515.9
54719.4
55376.4
51201.6
53390
51723.9
49869.5
51248.4
131749
145722
141269
132805
112040
94078.6
82420.8
76169.6
68282.1
66080.9
65801.6
60266.3
62432.3
58962.1
54475.1
56816.3
52837.3
52017.2
52392.2
124639
126896
128910
117560
100897
80823.6
76327.9
69241.4
62768.3
60423.7
62028
55853.9
57096.9
52046.3
52387.1
53623.4
48320.6
50994
49355.1
123143
149591
160567
149506
118426
98538.7
91060.7
83454.1
75795.8
73446.7
70442.7
65617.7
65950.7
61155.4
59948.4
57779.8
53599.8
55128.3
52074.7
130404
137985
137119
120726
106067
92379.5
83142.8
72353.2
66442.8
67618.1
65287.6
62099.5
59773.9
54062.6
56860.1
53097.6
50678.7
51413.6
46141.1
129822
169993
166233
146187
121460
110095
98988.8
86182.6
80112.6
75444.7
71879.5
71492.6
68147.2
69378.2
67129.3
60769.7
59467.9
56053.8
51430.6
143837
146691
142006
130967
117034
100909
90178.1
78526.5
74804
70705.1
69125.4
68014.2
61497.8
62494.7
60181.9
52768
54214
49350
46594.7
135176
172701
185033
163051
145593
113344
96235
91911.3
81875.6
74512.9
73679.6
69015.7
69290.2
68745.9
66310.5
65313.2
64118.2
58744.3
51750.5
153344
161814
157865
141598
123814
104489
94601.9
83730.5
75946.5
70241.6
73196.4
69084
66545.4
67827.1
60975.2
59482.9
56403.4
49470
48928.5
138577
188333
188103
159244
141031
122145
104159
90844
83243.6
77812.1
74324.4
70915.9
67691.6
65035.4
62921
65009.1
65230.9
59863.1
55573.2
153519
163518
162759
150226
135051
112024
97079.3
82487.1
76855.9
73805.2
66984.5
69804.3
67016.5
63516.1
63161.2
63181.6
57310.2
54093.8
50844.5
148251
161475
192820
169349
141460
115077
100163
91238.6
84089.4
76953.9
73021.9
72836.6
68801.4
65486.7
66430
65858.1
59944.7
58113.8
60070.1
153646
165688
166012
146708
131780
113748
100238
86808.8
80362.2
74173.2
72588
69501.7
63779.5
63676.4
64215.2
59481.9
60664.7
59026.6
51353.8
134407
179385
187488
160517
145050
112515
101719
89152.7
79491.8
77892
75528.3
69048.3
66272.8
65657.6
64206.2
60935.3
57291.4
57638
60748.7
174687
165835
158931
145807
126400
105289
96694.3
86590.8
74812.6
74437.9
74533.9
69183.8
63951
62226.2
62345.6
56879.4
58114.8
57914
52255.4
136283
175412
190719
143954
122696
104244
95110.1
85870.3
81039.3
79192.4
76393.5
68628.6
65170.2
65157.8
63558.2
57083.1
58220.4
56889.7
57073
134548
148392
146226
136924
118490
103621
91642.5
83364.1
77165.1
74717.4
68323
66638.6
67677.8
62355.6
56297.3
57622.3
55785.8
54709.8
53101.1
125231
158269
146753
122674
117605
103801
91401.5
86901.3
80383.9
75730.9
73274.2
69114.9
68635.8
64927.4
60663.4
57673.3
59672
58691.4
55267.1
128215
139318
139557
124001
110084
100499
86074.9
84073.4
75801.4
70422.1
68153.6
69379
67041.8
60869.3
56700.1
58233.2
53838.9
50395.2
52675.1
121443
147502
145806
120374
106000
96836.9
88119.3
82928
79717.9
73714.6
72462.5
69372.4
69583.2
65065.3
59531.1
58068.3
59754.7
56634.2
53511.7
120499
129084
127234
114855
100107
87771.6
80097
79044.2
73706.6
73251.1
71285.3
72274.3
64762.4
60505.8
58669.7
58792.4
53727.3
48853.8
50778.1
108999
135162
134096
121750
99451.4
90535
84573.8
77958.3
77973.5
73332.4
75249.4
69815.4
71895.9
68368.5
60603.4
60333.8
60776.2
57021.1
51448.5
117199
128577
124196
108474
91769
84924
76195.8
71606.9
71131.3
70211.2
69179.1
67632.6
67025.7
61016.6
59608.8
60549.3
54147.5
48494.2
50313.2
100532
140628
125012
122591
100318
90590.1
84775.4
81169.1
75057.7
74560.5
73001
69362.2
72036.1
68720.4
64164.8
61778.5
61366.9
56903.5
51714.8
109704
119354
117026
104952
91611.5
81619.5
76982.3
75623.7
72063.2
69988.6
68963.7
67817.5
68233.9
64582.9
57402.3
62277.4
55604.9
50094.8
50927.4
107545
125753
128926
116892
106527
95300.3
89817
83552.4
78861.2
77211.7
74221.3
72958.7
73056.7
70247.7
65428.6
64619.5
62735.1
58787.3
55055.7
118865
122878
117983
106956
93287.3
86975.5
80832.2
77737.3
75941.1
72752.5
69969.6
66975
68656.5
66842.9
61889.5
62319
57249.5
52815.6
50556.9
110726
137452
132610
128497
118477
100434
95536.7
89731.4
85632
82787
81116.7
75815.4
74074.1
73100.4
66606.6
67910.7
66318.7
61670.3
56498.2
125920
128698
124719
113810
101395
89468.4
84828.8
79558.5
77978.8
77337.8
76864.5
70470.5
68445.5
66825
66527.1
65165.8
58960
53542.8
54153
116379
142985
152931
133921
122484
111407
102942
97831.3
90212.7
89342.4
86452.4
81994.1
79970.8
76464.4
71757.6
71585.2
71128.6
65026.3
59877.3
129425
142095
139933
126833
113308
103175
93499.7
88267.4
83723.7
81666.7
79624.8
75000.5
74986.9
69744.8
67700.8
68836.4
62364.5
56370.9
56948.4
128899
151860
164189
149613
141392
126435
114833
111388
101535
99347.6
94442.9
87923.6
88336.4
83888.6
76273.6
75673
73810.6
72108.9
63183.4
129806
142357
143680
133036
122792
116131
110813
99689.2
91798.5
90974.2
86539.4
82821.9
80064.5
72097.7
70682.8
72104.5
67395.3
60588.2
58867.4
129972
157579
172443
165575
160818
145277
132439
123829
112965
110086
104110
95846.4
93721
93906.1
82686.7
79791.9
80580.4
76818.5
70642
148481
155737
158793
146487
137174
131951
121536
109287
104211
100785
94541.8
91656.1
90332.4
79718.7
74830.3
76550.3
70911.6
60457.3
59295
133114
173344
177067
180613
176682
153990
143174
137734
123681
119720
116406
108410
104767
98990.3
90247.2
83726.6
82499.8
80213
72332.5
152097
168497
168062
162907
152402
142793
137798
126100
114561
114116
108075
94430.5
94474.1
88352
76982.1
77148.8
73194.2
63763.3
62473.7
104299
104342
104409
104549
104831
105402
106552
108500
110601
95675.6
95710.1
95789.4
95955.8
96283.2
96924.7
98215.7
100950
108845
95482.3
95527.6
95597.6
95742.4
96031.1
96611.1
97776.5
99954.6
107724
97642.1
97674.8
97752.1
97913.7
98229.1
98836.7
100027
102538
124089
94364.9
94402.9
94470
94609.8
94891.5
95468.4
96668.8
99043.1
109396
103680
103714
103791
103953
104269
104880
106094
108727
127659
95460.3
95506.1
95583.3
95746.7
96078.4
96757.8
98170
101073
113083
116120
116150
116225
116380
116680
117255
118395
121010
145651
99432.2
99474
99547.4
99704.3
100026
100695
102115
105110
116245
120961
120990
121062
121213
121506
122069
123193
125856
151980
99663.8
99698.7
99764.7
99907.2
100203
100830
102203
105173
120108
120107
120134
120205
120352
120641
121205
122348
125093
153491
95342.3
95382.6
95444.9
95580.3
95864.1
96475.7
97852.1
100977
114259
113406
113436
113502
113640
113915
114455
115578
118445
152441
95405.2
95438.3
95507.3
95652.5
95951.3
96577.7
97924.2
101116
115308
97983.6
98003.1
98059.5
98180.9
98421.9
98891.8
99864.3
102493
135674
103590
103633
103706
103859
104209
104903
106357
109820
116528
86475.9
86491.4
86559.2
86706
86997.1
87578.4
88704.8
91894.4
130258
85197.9
85236.8
85312.7
85450.1
86115.6
86782.5
88189.8
92358.5
103935
76972.4
76976.6
77041.7
77188.6
77455.8
78072.7
79363.9
82396.8
122100
82135.6
82169.7
82246
82389.6
83188.4
83905.4
85340.7
89811.4
94860.4
69377.7
69373.7
69446.4
69604.3
69898.6
70557.9
71867.6
75473.1
111852
66938.7
66969.5
67021.4
67351.5
67693.8
68579.1
70009.4
74267.6
83141.2
63900.6
63893.1
63955.3
64069.6
64344.3
64898.5
66105
69278.8
102440
65638.8
65664.5
65699.3
66031.1
66228.3
67054.8
68315.1
72193.2
80775.1
59659.3
59636.5
59751.8
59840.2
60044.2
60544.5
61605.1
64890.4
98896.6
62305.1
62332.1
62373.9
62430.5
62237.6
62776.2
64088.7
66711.7
74091.7
62105.8
62034.9
62224.4
62304
61934.7
62206
63027.4
66558.9
104620
63503.4
63502.7
63365.6
63577.3
64094.3
64876.1
66200.1
67776
75532.1
68094.7
68032.8
68224
68428.3
67845.5
69415.8
69233.6
72543.2
108872
71259.4
71276.7
72879.5
73083
72868.2
73506.7
74983.8
76748.9
83302.9
73551.3
73532.5
73872.7
73950.6
74092.1
74591.7
75815.9
79691.9
105620
77926
77838.4
75901.9
76138.3
76124.6
76881.4
78281.2
80166.6
86757.2
88402.2
88399.2
88216
88320.2
88452.1
89083.8
89643.6
91931
131613
86777.9