/*--------------------------------*- C++ -*----------------------------------*\
| =========                 |                                                 |
| \\      /  F ield         | foam-extend: Open Source CFD                    |
|  \\    /   O peration     | Version:     3.1                                |
|   \\  /    A nd           | Web:         http://www.extend-project.de       |
|    \\/     M anipulation  |                                                 |
\*---------------------------------------------------------------------------*/
FoamFile
{
    version     2.0;
    format      ascii;
    class       volScalarField;
    location    "172800";
    object      sigmaHyd;
}
// * * * * * * * * * * * * * * * * * * * * * * * * * * * * * * * * * * * * * //

dimensions      [1 -1 -2 0 0 0 0];

internalField   nonuniform List<scalar> 
21211
(
52360
52349.7
52430.2
52608.3
52760.3
53723.6
55675
59165.9
66797.7
60097.5
60079.2
60121.8
60437.2
60777.7
61663
63425.1
68121.2
81709.3
53754.8
53747
53829.7
54014.5
54222.9
55196
57213.5
60579.5
69749.6
59411.7
59388.6
59452.2
59763.2
60149.3
61084
63054.3
68198.4
82035.8
53912.5
53905.6
53991.7
54191.3
54422.2
55421.8
57521.5
61873.4
71410
60796.2
60763.2
60820
61160.9
61569.9
62539.3
64576.6
69772.7
83784.2
56751.7
56755
56844.9
57040.3
57287.9
58319.6
60444.5
63618.9
73913.1
63919.4
63890.8
63964.8
64250
64677.6
65688.3
67874.7
73276.8
87615
56180.6
56196
56296.1
56506.2
56790.4
57850.5
60099.8
65317.4
76793.5
64068.3
64026
64120.5
64340.4
64800.4
65856.6
68085.1
73739.7
88118.1
62383.1
62410.3
62510.2
62719.7
62999.7
64094.3
66256.9
69605.5
81070.9
65723.2
65690.1
65786.8
66016.1
66492.1
67591
70009.3
76029.2
90993.2
54336.2
54381
54486.9
54722.4
55316.6
56013.1
58461.9
64319
76802.7
68608.2
68581.2
68683.3
68920.2
69437.6
70548
72988.9
79096
94612.9
67782
67838.2
67970.9
68209.9
68701.3
69568.1
71792.1
75219
86831.1
72287.3
72271
72371.8
72617.2
73151.2
74296.8
76876.2
83206.6
98741.5
61480.4
61533
61135
61407.3
61921
63150.4
65552.5
71660.1
84534.2
77475.1
77475.4
77555
77793.1
78326.1
79501.8
82092
88412.8
104096
68742.4
68808.2
68539.4
68799.1
69322.9
70455.9
72375.1
75881.9
89130.2
81260.3
81277.8
81373.8
81628.5
82191.6
83421.1
86172.8
92817.4
108597
68960.2
69012.7
69260.2
69494
70046.3
71431.4
90463.7
80747.1
93948.2
85026.2
85073.1
85190.4
85462.7
86070.7
87462.7
90578
97431.8
113060
78305.4
78356.6
78477
78722.4
79235.5
79995.4
70518
84857.6
97832.3
90811.4
90844.5
90966.3
91244.9
91850.1
93172.1
96370.8
103482
120117
83895.6
83927.5
84028.3
84258
84758.2
85828.9
88941.4
94105.7
107794
92092
92144.5
92280
92589.8
93259.4
94715.6
97942.3
105455
122643
91921.3
91948.7
92055.8
92299.2
92821.2
93938.7
96363.8
101445
115238
96458.3
96496.8
96643.4
96976.8
97692.8
99234.9
102629
110313
127777
103061
103089
103202
103455
103992
105121
107482
112413
125273
101386
101428
101584
101938
102689
104285
107742
115396
132260
105379
105412
105532
105801
106365
107536
109951
114979
128874
105227
105276
105442
105812
106592
108233
111755
119491
136494
111950
111981
112104
112379
112948
114116
116485
121341
135482
107783
107835
108008
108394
109199
110879
114451
122186
138984
116098
116133
116259
116538
117112
118277
120608
125265
138039
109859
109914
110092
110487
111307
113007
116608
124416
141498
119458
119487
119613
119891
120458
121599
123845
128180
139826
110192
110249
110431
110833
111662
113370
116960
124676
141595
65532.2
65522.7
65602.3
65759
66198.4
67171.7
68871.2
73616.8
80009.7
59388.7
59383.6
59610.3
59814.2
57150.2
61539.1
62870.7
64933.1
73233.1
53406.8
53249.6
56188.9
55910.7
54083.6
54797.2
56586.6
60442.8
63717.7
59036.6
59131.7
61497.6
61825
61986.7
60569.5
61969.7
68472.6
70298.2
61827.4
61796.3
61919.8
61994.4
62281
63124.7
64446.9
67622.3
68896.6
53664.4
53655.9
53898.4
54059.6
54340.1
54963.1
56303.5
59473.7
61575
53891.5
53902.1
54030.3
54242.4
54493
55064
56298.5
59000.9
58875.5
53238.6
53248.1
53291.7
53514.6
53769.3
54310.1
55423.3
57824.6
57795.9
49671.9
49689
49745.5
49928.5
50123.4
50660.1
51809.7
53960.7
53665.3
54860
54879.5
54936.1
55044.3
55356.5
55878.5
56973.3
59154.7
58837.8
45788.2
45819.4
45875.4
45996.3
46306.8
46655
47860.4
49975.7
51411.5
56658.4
56682.3
56740.7
56868.4
57130
57724.4
58925.6
61203.4
63579.1
58599.2
58629.6
58681.2
58797.3
59049.7
59705.9
60877.5
62953.1
65605.4
63789
63812
63867.2
63990.4
64250.2
64798.9
65922.4
67876.8
70594
68324.2
68349.8
68408.9
68539
68809.7
69369.4
70491.4
72389.7
74917.8
70915.2
70945.2
71008.8
71147.2
71432.1
72013.8
73170.2
75197.1
78628
71755.4
71789.8
71857.8
72004.2
72302.7
72905.1
74084.7
76143.3
79680.3
64257.5
64296.4
64369.4
64525.6
64842.3
65478.4
66721.5
68930.2
73596.5
65654.2
65694.2
65768.4
65924.9
66239.5
66864.7
68065.3
70084.8
73435.4
58469.6
58453.5
58523.5
58696.5
58951.8
59811.3
61530
65601.5
78843.6
52313.7
52304.8
52416.5
52543.1
52675.9
53693.5
55344.7
58679.6
71373.4
55038.6
55028
55036.4
55425.2
55778.5
56596.8
57880.3
61181.3
74530.6
52183.1
52182
52130.9
52252
52565.2
53358.9
54699.3
57826.4
71119.1
52296.5
52284.3
52313.8
52358.6
52641.9
53257.9
54419.3
56964.2
69080.4
48942.6
48931.7
48993
49125.7
49407.8
50005
51244.8
54346.3
65240.2
48178.6
48171.2
48229.3
48361.2
48632.7
49181.6
50224.8
52698.2
63833.7
49495
49486.7
49539.4
49654.6
49910
50425.1
51499.5
54047.8
64656
49941.7
49946.7
50002.9
50129.6
50386.2
50921.9
51955
54371.8
64390.2
50685
50687.4
50743.7
50870.4
51128.8
51684.3
52886.6
55576.2
64953.9
53057.1
53086.3
53150.1
53291.9
53591.5
54227.6
55501.3
58477.4
67082.7
55469.9
55494.1
55560.8
55712.6
56036
56722
58256.8
61864.3
70935.1
56597.9
56643.4
56719.9
56890.5
57252
58012.1
59659.1
63374.3
72337
58848.8
58886.5
58968.6
59150.6
59530.4
60318
61983.7
65620.8
74049.6
60263.6
60307.9
60397.1
60592.2
60995
61820.8
63545.6
67248.7
75473.5
60652.9
60702.4
60798.7
61007.2
61433.9
62301.4
64095.8
67890.9
76051.2
59387.2
59442.2
59544.7
59764.9
60212.3
61114.2
62959.2
66794.8
74719.7
58736
58792.6
58898.5
59124.5
59580.9
60496.4
62367.7
66279.7
74576.9
56862.3
56921.8
57029.8
57259
57717.8
58629.7
60472.2
64274.5
72279.7
44191.2
43308.3
40797.7
39360
36975.5
35927.7
33614.5
32743.5
32333.8
31538.6
30649.3
29300.6
29034.6
30593.2
31730.1
32493.1
33730.5
33201.4
31931.6
42572.3
39671.1
38048.8
36872.9
34367.5
33528.1
31973.7
30729.2
29244.6
28471.4
26516.6
25624.5
26720.1
30333.4
32666.3
33385.8
30946.3
29969.4
30731.5
43071.4
42124.5
40287.4
37603.6
35793
34731.7
32765.6
31478.3
31087.9
29912.7
29348.8
29482.6
29627
30707.6
32695.3
32898.5
30809.4
30823.5
31303.4
41734.9
37706
34421.4
34369.6
33615.5
31990.4
31254.2
29739.1
29346.1
28100.1
26778.4
25121.7
25209.1
28097.8
31786
32203.5
31721.7
29369.7
28677.9
42269.8
38777.7
37819.9
36800.6
33951.4
33264.8
32078.1
31400.4
29808.2
29883.1
28760.6
28905.8
30210.4
31272.7
31547.1
31484.7
30160.1
28659.4
29789.3
39747.9
37703.2
32844.3
30128
30939.7
31121.9
30542.9
30492.4
28913.1
31372.8
26994.7
26507.1
24918.1
26760.5
28101.9
29676.4
30228.7
30091.4
28543.7
41626.1
38568
35069.2
34800.4
33517
31951
32037.6
31103.6
30872.7
29029.9
29143.2
29137.6
29791.8
30812.4
30591.2
26479.6
29483.2
29050.1
28690.2
36205.2
35827.5
33380.4
29668
28563.3
29496.8
30644.1
31303.9
31093.5
28340.9
27877
26045.6
26218.6
26004.9
25545.3
26058.2
27648.3
28758.5
29745
40131.9
38826.1
35119.5
31046.8
33252.4
32178
29879.3
30961.2
31187.6
31019.2
30245.6
31456.7
29587.6
29197
28195.5
28426.3
25457
28509.9
29256.9
34923.5
32929.4
31739
31480.6
32349.9
30764.7
30265.7
30703.4
30730.1
31640.4
27992.6
33619.5
27898.2
29712.4
25117.3
22942.9
25064.8
26966.9
29415.1
38744.1
38289.1
36181.7
32239.5
30968.6
32921.4
30275.4
29453.1
30601.5
31262.1
31814.8
32023.6
30134.1
26600.3
25556.2
27811.7
28834.5
28648.7
30142.6
35895.9
34580.1
33679.3
33226.2
32353.9
30007.3
27548.1
30009.3
27528.7
29398.1
31489
29971.1
31412.7
28143.3
23948.9
23599.8
23533
24868.2
27331.3
39490.9
38741
37478.3
36136.8
32708.9
32899
31975.5
31678.4
28526.8
30568.6
32622.3
31786.7
29346
27472.8
25426.6
26247.6
29556.7
30045.4
32115.3
39279.8
36799.3
34202.1
32217.2
29707.4
38148.3
29409.9
27654.8
28647.9
28439.6
29300.6
31505.5
29002.4
29206.5
27060.2
22401.3
23367.6
23353
26220.1
41477.1
39180.5
38531.1
37740.1
35978
35313
30254.4
32159.8
32257.4
31412.7
31348.8
30886.1
28375
29137.2
26649
28017.4
29798.9
33040.9
34450.7
38985.7
36568.4
34776.4
31809.1
28762.4
28414.2
38516
28659.5
28333.5
27770.6
27506.8
27794.5
29835.9
25601.5
27505.2
26041.3
25178
25501.8
26624
41731.3
40642.9
38709
37782.9
35696.8
33644.5
35425.2
31587.2
33315.4
32048.3
28481.5
27340.4
28408.4
27126.3
27353.2
29385.8
32187.6
33931.4
34822.7
38476.8
36474.5
33113.6
41262.8
30951.9
29290.3
28202.9
38528.1
28622.8
27300.4
24946.1
22569.5
27049.8
27979.4
27287.2
25661
27459.4
28269.5
29885.5
42532.9
39579.5
38118.9
36942.6
36796.9
35316.9
35099.8
33582.2
30835.5
30036.5
30356.9
26648.1
28639.7
29301.7
29572.7
31020.6
32697.7
33133.7
32125
38505.3
36406.9
33466.2
30036.2
39994
31840.3
30552.3
28003.9
36356.5
27262.3
29111
25463.2
25577.8
28087.7
27230.9
28424.2
29349.7
31091
30970.5
41520
38865.7
36922.2
37797.3
36191.6
36875.5
36564.1
34475.5
29971.8
32459.4
28326.5
30739.8
28506.9
32395.5
31227.3
31330.8
31597.9
31269.6
31672.7
39268.5
36652.3
33040.9
40155.2
33474.8
34043.2
30099.1
28983.7
23764.3
33479.4
25793
23713.3
24735.5
27485.1
28977.2
29701.6
30904.2
31112.3
29881
42107.4
39386.5
37087.4
36281.3
37418.8
37251.5
35638.7
32835.2
28843
29195.1
33533.8
30437.3
31193.2
31871.1
31938.7
30843
30990.1
31093.8
30879.7
39757
37572.7
35464.7
35130.2
34767.2
30981.9
36746.1
28927.2
29697.2
22797.3
32764.7
25656.4
25765.5
27594.7
29153.2
29997.1
30460.3
29571.2
29715.9
44632.1
42157.3
39996.6
38915.3
37572.3
35705.1
32600.1
31984.4
30259.3
28485.9
29343.4
28742.9
32157.9
32888.8
31038.3
31575.5
31608.3
32415.3
31775
41826
39044.9
38451.8
37406.7
32789.9
37757.9
25194.7
33903.2
24679.6
24618
24851.7
27662.4
26571
29075.4
28710.8
30029.6
29627.8
29897.7
29556.7
47678.5
45711.7
44365.3
41957
37333.2
32180.3
32003.8
30432.3
30694.6
30421.6
30808.2
32265.2
31736.9
34997.7
32642
32050.3
33220.2
33274.9
33165.6
44041.5
42455.1
40855.5
37831.4
39856.2
25542.1
35262.1
23710.8
32231.3
25999.2
24323.4
28709.4
27680.3
30936.2
30198.2
29503.1
31056.1
30570.2
31420.2
50985.3
50299
47587
41619.9
33749.7
32587.9
29847.2
31065.6
30737.8
31863.4
33538.4
34733.9
33708.7
34133.5
35439.9
35032.7
34413.1
35308.1
34132
46902.1
45332.6
41558.2
40272.9
26700
37910.7
23697.2
32848.9
25524.3
27870.2
27107.7
25724
28912.8
32134.9
32748.8
30463.1
31173.3
33201.5
32729.7
55064.6
52600.3
48167.5
44643.7
48224.5
29958.7
31366
30845
32986.1
34379.1
35510.8
36703.6
37378.2
35241.2
34216.4
36050.7
37873
37622.7
37434.9
49886
46456.4
41624.6
47713.4
39840.3
26721
35522.9
26110.1
29771.4
29917.4
30049.3
29898.4
30745.5
33718.3
34985.7
33478.3
32014.3
33555.8
35423.4
55502.5
51448.7
47342.3
37507.4
43383.2
49032.4
33050.2
33544.2
34788.5
37529.1
38066
38113
38984.1
40740.2
36897.5
36115.7
38841.9
39871.8
38101.3
49144.3
46223.2
42567.3
31462.7
47996.3
38978.5
27742.5
33685.7
28894.1
30347.3
32679.7
33272
33790
36057.3
35718.1
37289
35323
34030
35448.2
53187.5
48110
47210.3
46279.1
43897.4
43709.2
38769.8
36994.6
37133.4
40004.8
40036.5
39521.2
40216.1
41939.5
41646.5
40354.8
39339.4
41638.3
40943.4
47605.8
45435.9
43009.9
41036.4
35040.3
47740.4
34315.6
35005.8
33223.8
34603.5
34996.3
36140.5
37133.2
39069.3
37584.7
38299.4
39768.3
37135.4
37062
50774.5
59942.9
47845.4
47149
47447.5
44838.5
45226.9
39737.3
40729.5
41928.8
41905.6
42101.6
44074.1
43987.7
43960.6
44279.4
43387.4
41171.9
41278.2
46332.4
46523
43193.9
40834.8
48749.5
32977.4
51397.3
33879.2
37779.3
37131.5
38762.1
39332.4
39950.5
42576.8
41170.7
39560.3
41654.6
42411.6
39638.6
95768.6
104622
105812
103630
97256.9
91397.8
87116.9
81916.6
77331.2
71652.9
67949.5
64875.3
60394.9
55300.4
54068.7
50145.1
46138.5
44230.1
45301
92613.6
108358
106762
105577
99855.5
90098.7
85969.3
83116.7
75600.5
69432.9
67213.4
62668.5
57824.9
54757.2
51165.5
46827.7
47067.1
45438.3
42728
102086
103619
108721
106073
102488
97331.4
92337.3
85838.4
80825
74296.8
70205
68000.4
61240.1
60047.1
56376.9
51558.3
46394
46441.4
45497.7
107275
111398
111290
109035
102677
98699.7
91568.9
86428.8
80872.1
73810.6
68893
61504.2
59307.6
58037
51792.8
47870.3
48275.6
46677
44735.5
99030.4
106791
113463
113350
108067
101567
96438.9
90782.4
83597.9
78206.1
71520.1
66387.8
62026.4
61643.1
59025.3
50241.1
49796.5
48869.9
46275.8
99147.6
112393
113321
112763
110194
104634
95449.5
90224.7
83161.9
76982.9
71739.5
66521.7
64332.3
59999
52562.9
50766.3
50266
46515.4
42085.2
111037
113118
119208
116110
109290
106007
97763.5
93704.7
88348.9
82803.5
72379.6
69135.9
64686.3
62552.3
57994.5
52784.2
53536.7
49987
45066.4
106993
116519
119332
119144
112963
107548
100613
93580.1
85503.7
82849.2
75032.1
70300.5
66404.3
58633.9
54515.4
54541.5
51978
47523.9
40213.1
108541
115171
123557
117896
110374
109253
101715
95193.8
89716.6
83162.2
79364.2
71516.4
67138.4
63273
58667.2
57773.5
53617.3
48513.7
43349.4
108113
121822
124257
121066
114459
109325
103944
97590.2
90556.5
83980.2
76246.6
73467
67423.7
59610.5
57150
56536.8
51182.6
44070.9
38539.1
115053
115046
129654
118553
117663
109675
102989
102028
94276.2
84857.1
78357.6
75536
69442.4
63179.7
59971.5
56887.4
53437.8
47371.7
41871.1
111648
121139
124860
121356
116895
113414
106090
100575
93456.8
87115
81361.7
74902.7
67583.3
60034.5
59904.5
55997
48111.3
42145.4
37561.1
120909
123868
125441
126395
122077
115897
110454
103758
96537.3
90382
83368.6
76299.8
68945.2
64731.4
62373.3
57469.8
52365
45844.4
41802.6
116371
129983
131902
128318
122052
117438
110083
102300
96407.2
92232.6
85305.9
75922.6
67204.5
62368.8
63324.3
54108.9
46414.4
40295
39873
114156
133285
137330
126712
131431
119273
109699
105069
99298.5
91166.9
86471
76670.3
70626.9
66508.9
62534.4
57106.8
50475.6
44306.4
41528.2
117123
130122
135127
131093
126132
121495
113568
103908
96644.5
91929.3
84443.8
76769
68702.8
65837.7
62276.6
52119.8
43821.8
41956.4
41892.1
119239
146109
143150
138285
134664
127060
109095
105423
101146
93695.2
87026.8
78084.9
72187.9
64926
62678.4
56789.2
48677.2
44862.9
43556.9
126330
139522
140806
135713
130647
123329
114937
108914
100476
93953.7
86360.4
79965.4
71835.5
66279.5
60771.5
50822.3
43709.4
44451.2
41854.7
126191
149276
148144
136054
133043
126010
114908
115307
102023
93197.3
86162.7
83674
74498.2
63990.9
63025.2
56215.1
47596.3
45166.4
44211.4
128837
144180
147733
141089
134465
126733
120240
113617
104697
97229
85484.2
79826.4
74431
65381.1
59461.8
51000.4
48969.5
46030.9
41595.6
137391
153599
156610
155240
135254
134730
126471
111503
105490
100152
85541.7
84095.1
74548.9
65431.3
62867.4
58360.4
49234.2
46687.1
43813.7
135985
148245
152855
146022
137575
132153
127112
112742
107539
100870
85656.7
79660.8
74874
67876.2
60379.2
54564.5
51884.1
47253.1
42193.3
140706
148101
157384
153357
146738
135632
121973
114786
110169
100195
88689.8
81747.2
77903.3
70608.6
64432
57661.9
52758.6
50047.9
45970.6
146538
155054
155121
153229
145964
137720
125587
117152
110329
100458
90615.1
81384.6
74588.9
70379.1
61372.5
55624.4
52938.1
48465.5
42912.3
153277
165212
171874
166267
145151
146893
132713
117130
117929
97684.7
92238.6
84649.7
78177.2
71530.4
65457
57861.7
53830.2
51968.2
47152.4
144306
162023
162268
156062
148758
140316
131325
123124
111902
101421
91937
83121
74135.1
69889
63493.9
55552.4
52425.6
49592.8
41903.4
165550
161519
168533
172729
165196
152928
129683
129984
108981
101197
92824.8
88882.6
77695.6
72088.3
67655.6
59989.2
54937.5
53410
49515.6
148126
164436
167891
165758
155292
144982
134270
123077
111731
103724
92147.6
84532.4
75527.4
67127.7
63858.3
57355.5
53438.1
51284.3
48009.4
154629
187368
189428
171011
153691
149992
139497
126038
115387
106913
96338.8
90456.7
79470.9
71202.6
69274.4
63541.4
58859.9
56375.7
53614.1
153683
169047
171543
166016
157334
147246
135803
123937
116037
109910
96348.5
86427.2
80480.1
69073.2
64362.1
62101.7
54040.2
51114.7
48896.8
168890
192293
186705
187540
177133
146401
131756
131123
122048
109519
97721.9
90938.7
83412.3
76222.9
69738.7
68457
62646.7
59783.1
56959.2
157566
171501
173739
170596
159766
147630
137048
126570
121572
110183
97023.9
89780.4
81896.7
75485.8
67571.4
65591.3
58285.2
52846.7
51042.6
174725
193422
187902
181501
173112
155862
147138
131159
132056
105883
100992
94506.3
84761.3
78861.8
72566.7
70022.7
65841.5
59844.8
57867.6
159484
173526
176556
170880
160412
150680
142442
134066
121375
107592
100192
91785.7
82033.8
77745.7
71332.1
66425.7
62887.8
55032.7
52126.9
185374
205629
193744
186355
157995
158351
150751
133652
122933
114297
104988
92654.8
90131.8
78235.4
75430.8
68712.2
66048.4
60888.5
56705.6
161437
173788
182834
172337
161955
151631
144468
134892
121636
112089
102173
91055.4
83776.4
77436.5
72866.1
64972.8
63749.8
56881.5
50272
176177
198844
193344
196100
172044
160364
144476
130531
126024
118876
105899
97252
88971.1
81773.5
74825.9
69209.7
64762.5
60796.8
55164.1
161800
174510
178803
171932
164261
154414
145660
136395
124993
114802
103463
94456.3
85361.4
77835.3
73046.9
65246.5
60582.8
57638.3
49690.5
94972
100081
103870
97459
91609.4
88334.5
79572.7
74432.6
72383.6
66226.2
60171.2
60560.5
56197
51964.6
52345.6
50806.4
45321.2
43236.5
44768.6
77825.6
94521.7
92266.8
89162.8
83767.5
78543.7
71250
70182.3
64766.1
58983.3
56225.2
55312.4
51806.1
48403.2
48868.7
45757.3
43873.2
41544.3
42912.4
83972.4
93911.2
85870.7
83675.6
78459.6
72178.7
61368.3
59087.9
55251.1
50476.7
49426.8
50291
46490.8
46234.4
45709.2
42782.6
40513.5
41051.9
42664.8
86384.9
88281.3
92007.4
74603.8
67203.3
59219.8
52597.2
51503.3
49704.5
45437.2
44716.4
45190.3
43977.8
43432.9
42720.6
39303.8
36781.9
38428.8
41437.7
72993
81718.5
84709.3
70873.6
66652
53108.5
48745.7
44795.5
43251.4
41195.2
41368.6
41201.9
40856.6
40056.3
38966.6
37311.3
35116
36764
39876.3
66445.7
79699.6
74166.5
65157.6
50308.6
45059.3
42711.5
39991.5
38114.9
39074.2
37484.4
38353.6
38795.7
37476.2
37008
35940.7
35039.3
36085.2
36819.5
78706.6
72415.5
69901.5
55822
49765.6
41548.9
36843.1
35514.5
36504.9
35780.3
35809.2
36289.8
36709.3
37145.5
36222.4
34792.9
33062.6
34806.6
35551.3
56711.5
71410.7
63286.7
59090.9
44090.2
37451.9
34316.9
32483.8
32149.6
34794.9
34370.4
35100.1
36708.7
36843.4
35464.8
33607.9
32455.1
35328.3
33495.4
79267
79871.8
66454.2
54696.9
45199.6
38277.4
30905.4
31581.9
34247.3
33212
35098.5
35758.9
37853.1
36940.4
36584.8
32947.3
31915.2
35539
33086.7
70854.6
68240.3
68405
54442.4
43917
36167.1
35042.1
32528.7
35011.5
34965.5
36431.8
34929.3
37834.2
35590.1
35750.4
31672.6
31937
34088.2
31885.3
76301.5
79265.4
76453.8
59701.6
47848.2
41820
38935.5
34541.1
36086.7
35269.2
37525.2
35651
37211.8
35047.9
37059
33735.6
30602.6
31479.3
30871.9
85804.5
92575.3
70935.3
61786
57419.4
44374.8
41080.9
38241.3
36842.1
37184.7
38182.5
37056.8
39365.7
35759.2
38037.1
35257.8
31698
29626.3
29511.6
90792.2
91328.9
79204.9
72454.9
59253.7
50713.9
45715.6
42203.3
41598.6
40961.7
39233.6
38811.6
40049.6
35524.3
35274.1
36424.5
32413
30289.8
29122.2
87035.6
96627.7
92352.2
72111.6
62264
56456.4
50721.3
45722.3
43795.4
42995.7
40441.2
38919.2
36544.2
36907.2
34445.7
33393.5
32968.4
31226.1
30689.7
89466.2
91600.7
90860.9
83651.3
72646.8
57083
50490
47393.6
45802.3
41324.9
38817.1
38301.4
35644.3
36776.9
33825.7
33042.5
32763.8
32695.1
31136.2
96444
101733
105762
78230.8
72831.4
58395.5
51389.4
46521
44157.5
41474.2
39538.4
37631.6
35374.8
35271.6
35000.8
33681.5
34303.7
33343.6
33596.6
92759.8
101832
95746.5
80817.7
67166.1
55553.1
50395.6
45853.3
41760.3
40754
39406.9
38662.9
36664.3
34915.6
35670.8
35235.8
35300.2
36017.5
35199.2
106826
93464.2
90282.2
81843.7
69292.9
56521.7
49942.6
46994.8
43538
41973.6
41671
39319.1
38901.6
37598.1
36591.8
37288.2
36114.9
36100.4
35260.1
97534.7
99202.1
86412.8
76058.3
66816.8
57226.4
50639.8
46747
44353.2
41799.7
41670.9
40208.5
38292.2
38418.1
36018.6
35733.2
35208.6
33814.3
34097.6
93552.3
99436.8
100068
98938.8
90719.3
85222.1
78793.9
73229.5
66946
62153.6
60041.2
56912.6
53434.2
53419.4
50253.1
44839.6
43248.2
42550.6
41456.2
86231.5
101340
89260.5
87157
82769.3
71248.4
68584.7
63307
59113.1
55693.8
53974.6
51312.4
49182.9
50035.6
47530.4
41724
39934.4
39878.2
39628.6
86482.2
91353.7
88578.5
82073.7
75081.7
64046.1
60757.2
54094.6
50550.2
47834.5
48120.1
45687.2
44395.1
45886.9
43683.7
38717
38873
39776.7
39806.1
77156.2
90210.3
84023.3
72341
65274
53020.1
47952.3
46309.9
43747.5
43054.6
43452.8
42155
42098.5
43494.9
40349.3
36934.8
37758.5
38116.9
38400.5
66038.1
81343.4
76812.4
67942.8
58110.5
46903.2
44031
39280.9
38695.4
38514.8
37979.8
38545.2
38671.8
38617.3
37921.3
35982.9
35330.7
36844.5
37844.9
81819.2
75658.8
69230.7
60197.2
46913
39832.2
35889.2
33870.9
33733.2
36105.5
35475.5
35558.7
35359.8
36914.5
37289.1
33162.7
33883.4
36115.7
35904.7
62725.8
65546.3
62906.1
50352.5
41244.2
35304.8
32038.3
29704.2
31061.1
32413.3
32727
32920.4
34403.4
36500.2
35210.2
32934.5
33499.1
34666.1
33904.8
62599.8
71315.6
58518.8
50387.3
38690.1
32249.8
27957.8
28258.2
28128.2
31029
32471.7
31809.8
35683.5
36649.5
35000.2
33216.8
33240.5
35157.5
32387.5
63904.5
68657.6
56835.8
51631.7
37105.7
34741
27302.5
25854.4
28945.4
30179.4
32556.2
33117
36252.8
37186.9
37023.7
34864.7
32878.7
33430.2
30602.4
64862.5
70849
61396.8
50554.5
37798.3
32559.4
27252.1
28429.9
29759.7
33448.2
34109.8
35141.2
39001.2
38579.8
35927.3
35727
32537.2
31851.9
28744.2
71225
73510.3
65428.2
59199.8
42285
37034.1
34906.2
30825.2
34272.3
36669.2
36444.6
36336.8
40720.5
38599.5
37541.2
35067.6
31122.9
30906.7
27648.9
78361.8
75446.5
69930.7
59965.3
53903.5
44965
39825.6
38206.8
37445.2
38473.7
40531.8
40072.4
39818.8
37010.1
38096.9
34294.7
30363.2
31525.4
28255.2
77632.3
82245.1
77791.2
68607.9
62518.7
52583.2
49026.1
44012.6
42853.9
40103.3
40925.7
40681.2
37595.9
36272.2
34764.2
33102.3
30026.4
30912.3
30235.4
78624.3
85021.7
81052.6
72596.1
64157.5
56342.9
49763
44079.4
43722.9
43100.8
39576
37568.8
36555.9
33501.3
33064.2
32652.7
30270.7
29555.8
31284.5
80702
87402.2
83935.2
74976
65471.7
57029.8
52041.2
46280.4
42784.9
41155.3
39844.1
36538
35062.5
35064.5
31860
33551
31641.6
29221.3
31131.4
81829
85303.4
81814.5
73942.8
64917.3
54806.6
48467.4
44030.6
41316.1
38575
38475.6
37919
33607.4
34643.1
32708.5
32052.2
34023.1
31487.8
30827.1
81176.9
82902.1
79316.9
70171.6
62600.6
54712.1
47694.7
42054.1
40098.3
39021
35959.4
37235.7
35762.7
32923.9
34998.4
33060.1
34539
34781.5
31961.3
79746.1
84106.3
79219.2
71352.8
61773.7
52173.1
49071
42804.2
39483.5
39678.7
38204
37282.1
37817.7
34479.4
34718.5
34719
33270.4
34911.1
32354.3
77328.2
81911.2
78400.9
70517.9
63281.9
51152.8
47377
43785.1
38597
37810.8
38669.6
37436.5
36580
35870.3
33453.8
34882.1
32573.4
33209.4
33391.3
87719.3
83969.8
81438.7
72976.6
63891.3
54486.1
48179.1
44610.3
42677.9
40289.8
40451.1
39685.9
37147.5
37629.8
35162.8
35323.9
34942
33324.6
34013.8
76213.9
78336.9
75169.7
67219.5
60916.2
49558.1
46160.5
42778
37914.8
37008.5
38316.4
36956.6
35926.8
35588.1
33031.7
34788.1
32328
32633
32748
90760.4
85040.6
80180.4
75276.7
65564.3
55285.6
50087.4
46938.1
43458.2
42173.9
42082
39787.8
39163.1
37441
36126.7
36009.8
33536.4
33293
32181.6
79301.2
80152.8
75108.2
68907.3
61000.5
50102.3
46731.6
41971.4
39053.6
39221.5
39584.8
37606.6
37279.1
33971.7
34351.8
34027.2
31537.4
33487.4
30997.6
84383.7
87198.9
88781.7
79856
67553.8
58198.1
54860.5
50561.9
47785.1
45887.8
45096.6
42744
41154.8
38427.9
38259.9
35915.8
34232.9
34073.5
31985.2
83473.5
84167.5
80989.7
71959.5
65193.5
57288.4
51426
44980.7
43415.5
43797.9
42033.8
41741.4
39110.5
35939
37629.1
33951.9
33677.4
32867.2
28872.9
87985.1
96982.7
89036.1
80819.9
69616.6
64533.8
58413.7
52724.8
51004.8
48854.7
47368.1
45597.6
42945.6
43457.5
41570.5
38009.5
36767.3
34068.8
31153.5
90015.6
91158.8
88171.5
79716.4
71838.1
61816
56179.7
50316.8
48354.5
45881.1
46377.1
44792
41284.4
41434.3
38343
35284.1
35617.3
31844.3
29786.4
95055.8
100363
100413
87671.7
77757
65886.8
58004.6
56590.8
52144.2
48791.1
47809.2
45191.2
44024.5
44383.4
42287.3
41066.9
38810.6
35240.8
30742.6
96422.8
99471.4
95514.4
86256.5
76312.5
65050.9
60077.4
52948.4
49037.4
46996.4
47942.7
45621.2
43637.8
44015.1
39854.8
39589
36327.7
32306.1
30678
94833.2
106574
101995
87955.3
76343.8
69420
61703.8
56348.8
52803.3
50596.8
48988
45580.1
44041.8
42056.1
41268.9
40824
39531.2
35881.8
31940.4
97422.5
102379
99844.5
91368.8
80159.2
68217.8
61405.5
53155.1
51303.6
49097.7
46755.9
46857.4
44155.7
41496.9
41979.9
40992
37092.9
34842.9
31777.5
98567.3
98963.7
103065
92430.9
78960.6
68244.6
60417.5
56925.7
54396.2
51133.8
48494.4
47437.9
44671.5
41851.3
42749.1
40467.6
37266.8
34722.1
33807.3
96260.9
103630
97528.9
90006.8
79275.6
70721.2
63399.5
55917.9
53016.9
50897.5
50071.4
46617.8
43258.8
42440.6
42423.6
38187.3
37694.3
37002.5
30040.5
99829.5
103116
102909
89055.5
80674.7
65701.4
60892
55755.6
52269.8
51480.1
49415.7
45921.2
44077.8
42492.8
41436.3
38209.9
34754.6
33971.1
34713.3
108825
102421
94281
84753.9
76152.1
67081.3
61546.7
54488.8
50599.4
51614.3
50505.3
45992.9
44720
41939
40683.1
37285.1
36557.4
34197.6
30089.4
96210.5
104577
103629
83114
72223.5
60256.4
57164.1
51811.4
51227.2
51063.2
50013.3
45568.8
42995.1
42226.3
40086
35554.7
35273.6
32928.8
32795.9
82311.8
86729.4
85758.9
80236.9
70375.9
63135.9
58690.7
53403.6
51443
49922.1
47546
46095.3
46371.3
41336.2
38931.6
37641.6
35555.1
32250.7
29356.3
78258.9
88351.2
79025.4
72432.3
69349.4
60072
53158
52153.4
48807.8
47847.6
46442.2
43950.7
43942.3
41729.9
38627.7
35859.4
36320.1
32472.3
31406.9
73468
81007.5
72767.6
69762.4
60915.2
57267.5
52160.6
52385.2
47778.9
46164.4
46214.8
46144.3
44180.4
40182.8
38550.1
37945.6
35310
30069.4
29787.6
82649.5
84828.6
77902.9
68514.9
58602.8
56751.1
52909.9
49854.9
48489.2
45836
44559.4
42721.4
43741.5
40809.7
38053.9
35748.9
36520.4
31539.9
30347
68009.4
71501.4
63766.6
62600.3
54277.2
51145.8
47035.7
47666.2
45521.8
46025.5
45918.4
45407.7
43016.4
39286.4
39148.6
37969.7
34821.7
30308.5
29364.9
71276.9
75450.2
71027
68833.2
54907.4
52580.2
49718.6
48711.5
47796.2
45910.8
45613.2
43941.6
44262.6
42777.5
38726.6
36942.3
36928.1
32383.7
29490.1
71985.3
70133.6
63584.9
58547.4
50892.9
48791.1
44413.3
44524.9
43969.5
44284.4
43661.6
43590.4
42585
39040.7
39335.5
38955.9
34409.4
30838.9
29691.9
62573
82244.3
67073.7
69899
57824
54061.5
50715.8
50349
46613.2
47468.1
45996.7
44182.5
44365.3
41801.5
40873.2
38756.3
37220.3
33420.3
30235.8
62314.3
70079.4
64892.3
57372.9
54096.1
48096.9
46550.3
46366.9
43343.8
43636.2
43916.8
43010.9
43641.1
38702.7
37207.9
39409.7
34419.8
31890.5
30812.4
71671.7
71975.8
72903.8
65102.6
62025.9
56127.7
54766.8
51100.4
49325.1
48322.2
46449.1
46168.3
45145.4
43540.9
41852.9
40574
38359.6
35371.2
32704.3
67283.8
68855.1
69924.2
62830.3
53570
52291.3
49502
47360.1
46102.7
45822.4
43630.3
43554.4
43881.3
41279.4
40479.8
40090.4
36569.8
32978.8
30963.9
71733.2
79473.8
73312
73332
68432.8
61094.6
57180.1
55302.9
53288.3
51286
50340
47851.9
46170.2
45694.5
42255.8
43036.2
40618.1
37365.5
34555.8
72724.3
73334.2
73018.7
66976.2
61364.1
54895.6
53384.9
48914.2
49116.7
49066.1
47402.8
46055.8
44131.8
42573.1
41820.1
41848.9
37054.3
34530.8
34109.8
76443.1
80494.6
86174.7
76677.8
69332.2
64882.2
61523.5
59458.8
55888.5
54618.9
53733.1
51102.1
49816.2
47414.8
44327.4
45205.8
43838.7
38702.4
36592.7
80505.1
82122.8
80188.2
75674.3
65509.6
62131.8
57502.5
54907.9
52820
52079.5
49310.9
48718.7
48587.9
44347.8
42469.6
43457
39456.2
35779.5
35626
81854.8
85550.5
91268
81648
79918.1
71889.5
68240.3
65877.8
60554.6
60530.2
58256
54802.5
53689.4
51165.6
46903.3
46759.1
45853.9
43419.8
39044.4
74961.9
87022.3
84475.6
77117
74145.5
69500.1
67389.5
61131.4
57702.4
56906.9
54740.2
53653.8
51820.7
46714.8
44553.1
45048.9
42115.6
37926.9
36952.9
86396.5
89485.8
95058.5
90253.5
89637.9
81349.8
75957.8
72809.8
66921.1
66553.3
63167
58636.2
57177.5
55839.7
49948.1
48561.6
49590.3
45945.9
42103.3
88877
90170.8
94149.2
83953.5
82832.3
78563.3
72632.7
67834.2
64730.9
63127.7
59405
57484.1
57364.8
50631.1
47171.3
47397.4
44852.7
38720.7
37913.9
86265.6
102471
99617.7
102468
98603.4
87617.3
82608.4
80057.3
72978.9
72114.6
69448.9
64624.2
62855.5
58747.7
53318
50579.2
50689.6
47914
43084.9
94868.7
101406
102760
98682.1
91317.5
86128.7
82453.2
76136.1
71504.7
70301.9
66266.3
60679.4
60714.4
56199.5
49125.2
48065.9
46647.8
41046.9
40107.4
60085.8
60128.2
60204.4
60365.1
60685.9
61317.3
62512.9
64483.6
67589.7
57795.9
57854.5
57961.2
58186.9
58636.5
59522.9
61294.3
64892.6
72307.4
54466
54509.6
54587.9
54753.6
55085.8
55743.9
57012.9
59264.4
58984.5
59094.3
59152
59257.8
59482.1
59930.4
60819.2
62610.7
66299.6
80895
56670.6
56709.8
56787.7
56953.9
57289.5
57958.6
59259
61586.9
64270.3
61317.2
61374.6
61479.2
61702.6
62152.7
63052.2
64876.9
68650
82926.5
51896.6
51936.3
52017.6
52193.4
52551.7
53274.5
54707.7
57399
61157
67537.1
67590.9
67693.3
67913.8
68362.4
69268.6
71131.6
75065.3
91610
55288
55322.1
55400.5
55572.6
55928
56655.9
58126.3
60943.6
63834.7
70519.2
70567.9
70667.9
70886.2
71335.9
72256.7
74178
78305.4
95653.8
58482.3
58510.6
58584.3
58748.7
59092.9
59808.1
61275.1
64126
69628.8
70761.6
70804.9
70901.9
71116.7
71564.8
72494.5
74458.6
78725.4
96960.4
56607
56632.5
56702.4
56860.7
57196.6
57906.4
59387.2
62275.9
62812.2
68685.7
68724.3
68818
69028.5
69473
70406.5
72404
76799.4
95931.3
59270.7
59303.4
59380.5
59549
59904.4
60652
62191.2
65319.1
69618.8
63780.4
63818.1
63907.1
64109.1
64539.5
65454.7
67454.6
72006.6
91602.3
60903.6
60938
61011.4
61169.6
61512.3
62222.7
63691.9
66781.1
67696.4
55529.6
55558.4
55648.4
55851.1
56278.8
57181
59081.1
63510.9
83798.4
52294.3
52329.2
52409.5
52575.3
53065.9
53795.9
55288.3
58678.4
62472.5
48942.9
48958
49041.4
49229.3
49621.4
50462.5
52278.5
56409.5
77314.7
49866.5
49888.6
49966.8
50127.9
50644.4
51380.6
52880.7
56458.2
54952.1
43089.3
43084
43167.7
43354.6
43745.7
44557.2
46239.8
50095.5
69825.1
42619.8
42633.9
42707.4
42958.8
43338
44212.1
45842.3
49686.6
51367.3