/*--------------------------------*- C++ -*----------------------------------*\
| =========                 |                                                 |
| \\      /  F ield         | foam-extend: Open Source CFD                    |
|  \\    /   O peration     | Version:     3.1                                |
|   \\  /    A nd           | Web:         http://www.extend-project.de       |
|    \\/     M anipulation  |                                                 |
\*---------------------------------------------------------------------------*/
FoamFile
{
    version     2.0;
    format      ascii;
    class       volScalarField;
    location    "172800";
    object      UGrad;
}
// * * * * * * * * * * * * * * * * * * * * * * * * * * * * * * * * * * * * * //

dimensions      [0 0 0 0 0 0 0];

internalField   nonuniform List<scalar> 
21211
(
0.276868
0.276877
0.276855
0.276739
0.277424
0.278885
0.28477
0.311667
0.427373
0.267607
0.267597
0.267568
0.268233
0.267307
0.267294
0.267473
0.273042
0.300026
0.260608
0.260605
0.260586
0.260596
0.261376
0.262891
0.270328
0.302693
0.431652
0.264214
0.264194
0.264147
0.264293
0.264124
0.263916
0.263935
0.269733
0.300526
0.276019
0.276018
0.275994
0.276004
0.2772
0.278778
0.286194
0.317914
0.445092
0.275653
0.275633
0.275591
0.275685
0.27551
0.275369
0.275688
0.280609
0.308451
0.281586
0.281578
0.281563
0.281559
0.282921
0.284563
0.292521
0.330602
0.462821
0.282734
0.282722
0.282671
0.28274
0.282496
0.282365
0.282686
0.28854
0.319713
0.291986
0.291975
0.291967
0.291996
0.293847
0.295491
0.303278
0.337415
0.476095
0.281455
0.281453
0.281437
0.280502
0.280225
0.280112
0.280685
0.288492
0.323999
0.309654
0.309644
0.309643
0.309699
0.311551
0.313199
0.32126
0.362611
0.488578
0.290206
0.290206
0.290179
0.290115
0.289736
0.289586
0.290098
0.297779
0.334267
0.349968
0.349931
0.349932
0.34993
0.349804
0.354374
0.361325
0.395018
0.545001
0.311536
0.311531
0.311488
0.311417
0.311285
0.311077
0.311996
0.319959
0.360254
0.349472
0.349478
0.34949
0.349556
0.349968
0.353741
0.361791
0.404768
0.53503
0.321257
0.321247
0.32117
0.321097
0.320989
0.320539
0.321323
0.329847
0.368596
0.402012
0.401954
0.405733
0.405713
0.40591
0.406895
0.413505
0.442572
0.586316
0.354917
0.354898
0.354586
0.354522
0.354452
0.354444
0.355727
0.364671
0.408568
0.455826
0.455844
0.460282
0.46035
0.460521
0.46197
0.467465
0.513834
0.650558
0.360234
0.36021
0.359836
0.359747
0.359687
0.359574
0.360513
0.371956
0.417614
0.462474
0.46247
0.462094
0.462297
0.462472
0.465328
0.385595
0.495967
0.646395
0.382295
0.382279
0.382181
0.382106
0.382057
0.382726
0.385936
0.395622
0.445847
0.548907
0.548858
0.548876
0.548793
0.548711
0.547616
0.487935
0.596359
0.734827
0.387732
0.387727
0.387727
0.387729
0.387798
0.388228
0.392138
0.404959
0.456868
0.556616
0.556577
0.556496
0.55631
0.555968
0.555451
0.555312
0.581727
0.714806
0.388247
0.388232
0.388217
0.388186
0.388162
0.388408
0.390636
0.405785
0.461382
0.566223
0.56616
0.566032
0.565804
0.565541
0.565967
0.570901
0.596647
0.733911
0.401798
0.40178
0.401751
0.401701
0.401683
0.402124
0.405264
0.421249
0.478154
0.600799
0.600771
0.600648
0.600448
0.600267
0.600782
0.605381
0.629956
0.754449
0.42006
0.420042
0.420013
0.419972
0.419997
0.420551
0.42392
0.439755
0.492758
0.636072
0.635975
0.635826
0.635572
0.635285
0.635612
0.640067
0.666007
0.805327
0.433343
0.433318
0.433287
0.433246
0.433282
0.433879
0.437369
0.453395
0.506178
0.621751
0.621705
0.621594
0.621423
0.621326
0.622106
0.6277
0.65694
0.816725
0.444726
0.444705
0.444674
0.444638
0.444692
0.445356
0.449047
0.465394
0.521
0.628036
0.62797
0.627868
0.627718
0.627666
0.628544
0.634345
0.663915
0.82178
0.454636
0.454611
0.454582
0.454554
0.454629
0.455339
0.459096
0.475306
0.530385
0.597774
0.597768
0.597714
0.597667
0.597824
0.599113
0.605525
0.63454
0.788701
0.468181
0.468166
0.468146
0.468139
0.468262
0.469065
0.472875
0.488301
0.543183
0.304799
0.304834
0.304916
0.305168
0.30542
0.308052
0.314472
0.33825
0.415478
0.271965
0.271882
0.272807
0.273335
0.24684
0.275486
0.281859
0.266119
0.325614
0.283331
0.265772
0.248693
0.249929
0.202225
0.264802
0.267725
0.242691
0.347885
0.248854
0.248842
0.303885
0.305249
0.305264
0.253807
0.25931
0.331374
0.387478
0.303824
0.303813
0.306302
0.306214
0.306485
0.306345
0.31145
0.325049
0.34851
0.258789
0.258795
0.260302
0.260241
0.260477
0.261749
0.26674
0.282563
0.326657
0.258774
0.258788
0.258038
0.260021
0.260216
0.26146
0.266363
0.280286
0.322668
0.25194
0.251946
0.251958
0.253168
0.253291
0.254471
0.259165
0.271188
0.299387
0.243543
0.243547
0.243539
0.242915
0.245159
0.246032
0.249728
0.259969
0.319832
0.269924
0.269918
0.269904
0.269895
0.271237
0.271953
0.275525
0.285248
0.326798
0.267246
0.267233
0.26721
0.267163
0.266652
0.269522
0.271779
0.281241
0.362362
0.29644
0.296407
0.296383
0.296352
0.296428
0.299154
0.302109
0.312921
0.385156
0.318961
0.318953
0.318934
0.318918
0.318986
0.318925
0.321798
0.33198
0.393349
0.326283
0.326287
0.326269
0.326265
0.32637
0.32702
0.329741
0.338774
0.388136
0.351053
0.351053
0.351029
0.351013
0.35109
0.351638
0.354036
0.36227
0.408746
0.362484
0.362487
0.362463
0.362448
0.362529
0.363096
0.365589
0.374462
0.425716
0.360758
0.36077
0.360759
0.360774
0.36092
0.361633
0.364469
0.374224
0.421954
0.346523
0.346512
0.346495
0.346501
0.34664
0.347365
0.3503
0.361006
0.428383
0.3334
0.333404
0.333419
0.333488
0.333757
0.334748
0.338116
0.348348
0.402831
0.272454
0.272465
0.272516
0.271291
0.271722
0.271822
0.272109
0.273069
0.29718
0.253128
0.253151
0.253455
0.253859
0.241878
0.251738
0.251968
0.249686
0.270286
0.228011
0.227792
0.240749
0.238979
0.238611
0.225833
0.226051
0.242574
0.275685
0.270079
0.270247
0.270935
0.273887
0.273727
0.272331
0.272345
0.274086
0.302449
0.252869
0.252828
0.25204
0.252421
0.252334
0.252366
0.252574
0.255302
0.280836
0.230369
0.230349
0.229835
0.228814
0.228814
0.228742
0.228778
0.228415
0.251432
0.217673
0.217666
0.217652
0.217188
0.217178
0.217078
0.217089
0.223202
0.259454
0.219064
0.219062
0.21905
0.218541
0.218549
0.218531
0.218578
0.215199
0.249859
0.210882
0.210876
0.210865
0.210837
0.210442
0.21045
0.210663
0.219732
0.266786
0.230616
0.230627
0.230622
0.230612
0.230114
0.230078
0.230211
0.226375
0.26737
0.231639
0.231627
0.231613
0.231586
0.231518
0.23126
0.231565
0.243873
0.288883
0.244971
0.244969
0.244957
0.24493
0.244871
0.244319
0.244584
0.245091
0.289542
0.245405
0.245391
0.245374
0.245337
0.245281
0.245229
0.245818
0.250829
0.293026
0.254869
0.254856
0.254841
0.25481
0.254779
0.254856
0.255678
0.260703
0.29724
0.266886
0.266871
0.266855
0.266828
0.266812
0.266933
0.267826
0.272712
0.304557
0.275103
0.275086
0.275065
0.275032
0.275006
0.275121
0.276043
0.280779
0.307867
0.279615
0.2796
0.279577
0.279539
0.27951
0.279648
0.280733
0.286036
0.311109
0.272191
0.272173
0.272147
0.272105
0.272071
0.272204
0.273314
0.279165
0.311115
0.276187
0.276176
0.276158
0.276137
0.276154
0.276407
0.277726
0.283122
0.311411
0.287033
0.266213
0.251911
0.240395
0.238438
0.221473
0.21775
0.216092
0.20921
0.203926
0.199177
0.198068
0.202133
0.198864
0.198652
0.18869
0.197356
0.202946
0.200648
0.26424
0.25108
0.228437
0.219287
0.212067
0.201673
0.197448
0.192549
0.190085
0.184128
0.175346
0.170336
0.184749
0.18166
0.186017
0.183967
0.179888
0.178754
0.187788
0.280155
0.272114
0.257927
0.235633
0.234554
0.216079
0.208137
0.202497
0.19754
0.19394
0.194868
0.195532
0.202067
0.206808
0.203842
0.202072
0.186721
0.190816
0.195786
0.274337
0.277128
0.232746
0.211858
0.207979
0.206947
0.201656
0.197954
0.192682
0.193276
0.182517
0.171846
0.169807
0.188563
0.187701
0.188566
0.180798
0.172606
0.173769
0.278803
0.267637
0.271832
0.239373
0.218849
0.211294
0.20082
0.193315
0.189146
0.186938
0.189387
0.194575
0.203451
0.209202
0.205826
0.20603
0.19607
0.178485
0.190077
0.272293
0.268454
0.266005
0.216186
0.195776
0.20182
0.202011
0.200986
0.198104
0.192485
0.193779
0.180398
0.16822
0.175422
0.191788
0.185236
0.179846
0.174911
0.17199
0.278831
0.259281
0.242712
0.248521
0.215293
0.209487
0.200913
0.19771
0.190317
0.187668
0.1884
0.19474
0.200089
0.202594
0.199394
0.218177
0.195571
0.192054
0.183191
0.266872
0.252133
0.250266
0.227963
0.203795
0.183348
0.189364
0.191696
0.203906
0.195255
0.198214
0.185381
0.223805
0.180815
0.175847
0.184891
0.180227
0.179672
0.179937
0.281245
0.257901
0.24058
0.214764
0.217727
0.210174
0.210643
0.210912
0.215827
0.203004
0.200999
0.190789
0.188459
0.194956
0.201034
0.194733
0.206908
0.195882
0.201069
0.275531
0.248195
0.222558
0.209466
0.201271
0.193234
0.172977
0.188392
0.194366
0.203469
0.178989
0.198699
0.20053
0.182469
0.179144
0.172428
0.183916
0.184809
0.188396
0.279338
0.265793
0.237667
0.215964
0.219826
0.223724
0.221163
0.223899
0.24083
0.22438
0.214769
0.199513
0.189946
0.182925
0.203365
0.198723
0.199637
0.204736
0.211764
0.283429
0.240562
0.221632
0.212069
0.210287
0.231721
0.196865
0.18021
0.189188
0.202709
0.195262
0.195493
0.194631
0.205296
0.210685
0.163595
0.166163
0.189741
0.202997
0.281793
0.282369
0.264041
0.241069
0.243851
0.219219
0.230494
0.230775
0.231162
0.238993
0.222528
0.208962
0.194342
0.178783
0.180221
0.211485
0.204055
0.214541
0.22819
0.290347
0.262259
0.251868
0.235523
0.195524
0.190572
0.25588
0.208347
0.192177
0.198969
0.212216
0.200229
0.198744
0.184205
0.200289
0.199927
0.165973
0.183878
0.210754
0.301622
0.294052
0.273816
0.260137
0.251126
0.229133
0.211171
0.23833
0.234788
0.224491
0.228279
0.222283
0.194785
0.178092
0.182197
0.194029
0.208102
0.221381
0.235239
0.309801
0.28602
0.266974
0.269688
0.246241
0.191708
0.199753
0.26558
0.219874
0.196199
0.197182
0.210642
0.189089
0.199546
0.176527
0.185484
0.18623
0.193422
0.222344
0.326206
0.301769
0.281002
0.257894
0.251302
0.247552
0.219886
0.21641
0.237802
0.22569
0.214702
0.220303
0.205626
0.185633
0.191875
0.207261
0.2174
0.227869
0.242306
0.318843
0.294813
0.262586
0.223494
0.276447
0.232813
0.203296
0.217046
0.271931
0.217179
0.195937
0.199895
0.196863
0.203066
0.189019
0.191608
0.200445
0.225493
0.228403
0.327375
0.312245
0.290571
0.269585
0.252627
0.255712
0.24872
0.229999
0.216252
0.227908
0.214997
0.202501
0.209689
0.206727
0.206052
0.214927
0.224764
0.233899
0.238169
0.32609
0.302229
0.279301
0.258592
0.229711
0.27698
0.239518
0.215745
0.206679
0.258557
0.189482
0.190517
0.18451
0.197173
0.209854
0.207672
0.22487
0.229479
0.223774
0.326516
0.311785
0.298841
0.274995
0.270485
0.266855
0.256706
0.241557
0.223877
0.19187
0.222185
0.224107
0.217868
0.215463
0.211552
0.218854
0.227549
0.228171
0.230896
0.328696
0.309658
0.282646
0.248525
0.277305
0.267974
0.267071
0.237392
0.230548
0.188523
0.242458
0.193816
0.181109
0.196478
0.210189
0.219654
0.224309
0.219135
0.216793
0.325216
0.307743
0.293147
0.286892
0.28623
0.274563
0.25392
0.239518
0.261117
0.225632
0.196849
0.240152
0.23248
0.230231
0.22107
0.218991
0.219652
0.221861
0.224496
0.329307
0.312966
0.296744
0.287892
0.280559
0.259545
0.22503
0.267302
0.215708
0.209392
0.192187
0.23457
0.200095
0.193784
0.210123
0.219994
0.21771
0.214383
0.213788
0.339226
0.323283
0.309067
0.296402
0.283924
0.276347
0.266564
0.243385
0.231469
0.266652
0.231982
0.230823
0.246812
0.234112
0.228974
0.221167
0.220697
0.221507
0.221728
0.331056
0.318638
0.305865
0.298253
0.280132
0.249402
0.312741
0.218719
0.294269
0.222084
0.198765
0.217563
0.231008
0.218002
0.212867
0.216285
0.220597
0.216172
0.214807
0.352583
0.342902
0.330781
0.308222
0.290038
0.280601
0.271357
0.259532
0.24245
0.240112
0.281032
0.240235
0.256084
0.244047
0.238124
0.235111
0.226563
0.226543
0.223658
0.339485
0.328947
0.318823
0.304972
0.276978
0.349049
0.240958
0.288694
0.223279
0.279554
0.22775
0.196355
0.229248
0.236834
0.238747
0.218496
0.220544
0.224646
0.215903
0.367774
0.357696
0.337436
0.31866
0.30209
0.28276
0.275254
0.271808
0.266812
0.262061
0.264232
0.265283
0.262916
0.259885
0.249273
0.249184
0.242545
0.229483
0.226269
0.350469
0.340499
0.329017
0.32842
0.391789
0.268459
0.324728
0.247378
0.279249
0.252326
0.26615
0.243117
0.238579
0.25188
0.251747
0.242336
0.221738
0.222728
0.224927
0.371933
0.362324
0.34626
0.32679
0.296926
0.288632
0.281613
0.286619
0.288496
0.285475
0.286874
0.291304
0.281493
0.266928
0.261879
0.279486
0.25715
0.24478
0.23238
0.359557
0.354337
0.329184
0.285178
0.330583
0.381135
0.279971
0.319863
0.27036
0.267824
0.28066
0.288522
0.275202
0.266424
0.256234
0.273012
0.241612
0.221448
0.221563
0.380823
0.366254
0.344193
0.376608
0.330176
0.299824
0.30293
0.30028
0.313554
0.311173
0.310534
0.310432
0.303675
0.295892
0.272204
0.26181
0.279184
0.260913
0.247368
0.369773
0.353876
0.343023
0.351054
0.276173
0.331021
0.380459
0.306734
0.321992
0.298487
0.299496
0.306744
0.29528
0.281524
0.264629
0.262185
0.279924
0.242304
0.227179
0.389941
0.360949
0.351488
0.337309
0.331171
0.323511
0.316209
0.310165
0.33117
0.333897
0.332749
0.326011
0.315741
0.310669
0.290849
0.274268
0.268325
0.275943
0.261539
0.357926
0.353238
0.341463
0.337718
0.325702
0.273381
0.360012
0.328798
0.33304
0.328174
0.33116
0.332799
0.310311
0.294998
0.300462
0.264237
0.271265
0.290002
0.251687
0.398542
0.340091
0.362255
0.349454
0.334777
0.337362
0.318342
0.32974
0.342996
0.354645
0.348762
0.339516
0.325506
0.317993
0.306624
0.293483
0.280163
0.279507
0.293552
0.351653
0.333855
0.343839
0.34268
0.295957
0.329566
0.280052
0.357292
0.350605
0.362481
0.354438
0.345301
0.321586
0.313143
0.326452
0.2907
0.274156
0.287923
0.281985
0.469718
0.341199
0.508465
0.526357
0.443421
0.509218
0.491723
0.48628
0.478634
0.456147
0.432226
0.417272
0.39206
0.37027
0.359608
0.343637
0.315132
0.304491
0.301223
0.333552
0.453565
0.508341
0.472008
0.471668
0.610357
0.521338
0.494054
0.518348
0.456378
0.43196
0.412939
0.381487
0.364656
0.355975
0.310762
0.303646
0.308021
0.295662
0.49189
0.351604
0.490358
0.455514
0.470745
0.481185
0.380038
0.47073
0.463578
0.445865
0.460038
0.428193
0.402001
0.390831
0.368753
0.345039
0.315645
0.307523
0.290054
0.475987
0.381754
0.505842
0.481486
0.514967
0.415794
0.425405
0.498049
0.498534
0.466738
0.452067
0.445215
0.393694
0.412705
0.38536
0.34191
0.324983
0.312053
0.293202
0.492024
0.384421
0.490899
0.491655
0.503296
0.498212
0.410379
0.455745
0.447546
0.435641
0.426271
0.412462
0.412978
0.418896
0.379026
0.34485
0.343002
0.323255
0.301329
0.460418
0.362852
0.478891
0.494624
0.498262
0.462515
0.462624
0.508096
0.454202
0.454663
0.443821
0.428123
0.415653
0.418205
0.36543
0.341131
0.332292
0.345711
0.285627
0.471494
0.364442
0.494925
0.489828
0.494629
0.445412
0.444722
0.516413
0.450345
0.423089
0.417316
0.401526
0.407229
0.413801
0.377668
0.372413
0.351967
0.330034
0.306084
0.347716
0.467838
0.490909
0.485854
0.503313
0.478512
0.480491
0.531572
0.456549
0.447485
0.438543
0.436549
0.429905
0.43358
0.354443
0.363047
0.35334
0.322189
0.285668
0.476137
0.400963
0.488881
0.480548
0.483191
0.477633
0.491226
0.464705
0.353161
0.445358
0.412531
0.394874
0.414832
0.399773
0.390383
0.379048
0.361618
0.338785
0.304034
0.364631
0.47613
0.508858
0.506284
0.496927
0.456287
0.459112
0.390066
0.374283
0.50524
0.432902
0.40203
0.4268
0.387813
0.372289
0.370057
0.362507
0.325736
0.290944
0.479622
0.421398
0.537541
0.490435
0.521039
0.46444
0.467811
0.47139
0.372134
0.40864
0.439873
0.408907
0.41404
0.396784
0.386733
0.394519
0.369747
0.338473
0.304182
0.397547
0.48644
0.505383
0.489308
0.483021
0.482101
0.47623
0.417387
0.412947
0.488572
0.458438
0.406958
0.464791
0.386229
0.396732
0.394132
0.366834
0.323762
0.306389
0.517818
0.405593
0.489878
0.498186
0.524765
0.479706
0.486777
0.425638
0.421591
0.47837
0.414448
0.407146
0.416612
0.396523
0.400883
0.389913
0.36637
0.335409
0.306983
0.408247
0.493753
0.522907
0.530164
0.503847
0.475748
0.475942
0.43176
0.434072
0.463418
0.462308
0.444293
0.471819
0.376821
0.404773
0.394595
0.357261
0.341732
0.295749
0.529263
0.527719
0.558907
0.512716
0.623761
0.508251
0.530881
0.476645
0.5074
0.48671
0.419361
0.41263
0.407528
0.387947
0.396337
0.388491
0.364183
0.330038
0.313122
0.44515
0.513057
0.553974
0.523519
0.508294
0.500869
0.506041
0.458999
0.424979
0.498259
0.433378
0.438916
0.418047
0.379044
0.402712
0.391903
0.349478
0.316292
0.313035
0.614949
0.59155
0.601612
0.571457
0.596039
0.582992
0.4692
0.478948
0.507655
0.492201
0.419268
0.405067
0.387647
0.395925
0.4031
0.389423
0.361087
0.341924
0.338727
0.462342
0.550671
0.573489
0.556668
0.523848
0.482966
0.478935
0.475672
0.455808
0.485532
0.454904
0.423174
0.437083
0.377609
0.421376
0.425155
0.372079
0.332934
0.342029
0.599492
0.661839
0.690788
0.553817
0.576508
0.596351
0.500805
0.509669
0.458173
0.448608
0.38816
0.431793
0.391643
0.42091
0.413607
0.389422
0.3585
0.368916
0.354009
0.495138
0.555669
0.594098
0.575916
0.567992
0.532833
0.514508
0.470837
0.459816
0.37562
0.372505
0.438892
0.456285
0.448907
0.453523
0.402388
0.370757
0.367283
0.349792
0.633991
0.661677
0.616893
0.691049
0.638872
0.579323
0.604781
0.565106
0.502612
0.442167
0.362528
0.445939
0.399633
0.424376
0.414055
0.371947
0.354427
0.356503
0.343714
0.498621
0.583402
0.59158
0.598613
0.555077
0.511595
0.545598
0.484907
0.485241
0.432446
0.412426
0.480212
0.439852
0.436867
0.431618
0.368685
0.367835
0.37016
0.35071
0.650025
0.665462
0.678059
0.686844
0.677889
0.592556
0.587671
0.4887
0.550522
0.461237
0.357346
0.473857
0.420922
0.401809
0.384691
0.387743
0.36425
0.358635
0.34471
0.436964
0.690973
0.630495
0.616173
0.602667
0.572542
0.539232
0.483623
0.51471
0.432197
0.435488
0.533418
0.42183
0.416342
0.43293
0.348051
0.363023
0.366553
0.344995
0.775426
0.719456
0.747897
0.728566
0.610109
0.639809
0.613621
0.578527
0.613802
0.46603
0.373958
0.438435
0.438599
0.406379
0.391559
0.399896
0.374563
0.369554
0.359804
0.597616
0.602753
0.652201
0.62815
0.596177
0.546634
0.533427
0.551049
0.510686
0.456472
0.444246
0.513387
0.408654
0.399036
0.415203
0.387397
0.358653
0.364525
0.380482
0.739118
0.794982
0.737707
0.708422
0.835373
0.758279
0.598646
0.62626
0.531725
0.487985
0.434844
0.473184
0.463122
0.431831
0.408597
0.374137
0.38267
0.374953
0.366259
0.604876
0.625807
0.658639
0.657308
0.632489
0.591497
0.588463
0.520502
0.511531
0.471864
0.481125
0.471939
0.52478
0.397817
0.394941
0.388958
0.352424
0.360929
0.359574
0.848339
0.761482
0.79835
0.74436
0.641347
0.62846
0.713598
0.560383
0.533001
0.507644
0.408947
0.490273
0.432716
0.443205
0.435267
0.388938
0.398093
0.390877
0.374715
0.57603
0.650876
0.664297
0.643696
0.635457
0.59762
0.590724
0.537371
0.538162
0.495195
0.484652
0.51067
0.505343
0.481054
0.401855
0.427177
0.394292
0.355201
0.354848
0.804531
0.771969
0.805375
0.812855
0.82326
0.620219
0.558451
0.551784
0.544684
0.509966
0.42074
0.475095
0.458755
0.41874
0.464975
0.411032
0.42055
0.405851
0.384476
0.588683
0.636191
0.674725
0.686255
0.636033
0.582895
0.618545
0.538137
0.566135
0.501733
0.4586
0.553788
0.461277
0.484437
0.471657
0.416151
0.433582
0.367374
0.36307
0.748178
0.748356
0.740471
0.746119
0.779653
0.638276
0.639796
0.561501
0.659208
0.496318
0.42578
0.476573
0.475251
0.443681
0.422883
0.434658
0.402095
0.408394
0.393664
0.621587
0.678648
0.721367
0.686922
0.658238
0.61804
0.588961
0.586349
0.567267
0.464996
0.462643
0.563031
0.503673
0.451702
0.487205
0.414226
0.441721
0.434795
0.364154
1.03761
0.792414
0.763897
0.720922
0.602705
0.625655
0.650912
0.569523
0.543255
0.525811
0.400935
0.533539
0.450808
0.477169
0.425497
0.438167
0.41224
0.397813
0.404733
0.644615
0.695516
0.637736
0.769006
0.69467
0.622835
0.612319
0.58628
0.546807
0.476509
0.458249
0.511986
0.552595
0.428028
0.478632
0.440322
0.413481
0.456841
0.393177
0.801952
0.787374
0.805894
0.823533
0.743765
0.649275
0.610716
0.479658
0.582297
0.565807
0.516409
0.491076
0.47344
0.444817
0.447862
0.414118
0.438538
0.393418
0.395544
0.685334
0.720198
0.81992
0.701566
0.68646
0.638356
0.600301
0.575771
0.550505
0.662876
0.530979
0.574266
0.487067
0.501462
0.439157
0.484533
0.40899
0.421441
0.435618
0.466596
0.337654
0.517268
0.583969
0.527794
0.509885
0.493451
0.492965
0.466454
0.434248
0.411636
0.397026
0.372324
0.349385
0.346651
0.334314
0.31637
0.285497
0.289685
0.506071
0.536298
0.465311
0.421234
0.526977
0.506126
0.472825
0.443665
0.413801
0.385077
0.373928
0.359615
0.339303
0.328935
0.312157
0.298565
0.281093
0.269944
0.264987
0.507809
0.455385
0.433118
0.430194
0.512069
0.464389
0.426026
0.393411
0.366783
0.336919
0.33162
0.323551
0.305774
0.298301
0.288705
0.275085
0.249377
0.256485
0.250952
0.520267
0.5087
0.574084
0.420424
0.492766
0.435393
0.391045
0.347173
0.320005
0.30293
0.29822
0.287755
0.278397
0.274161
0.260529
0.251139
0.22518
0.241287
0.239448
0.551561
0.606404
0.594822
0.411718
0.444237
0.383753
0.338431
0.30322
0.276215
0.2705
0.262576
0.258336
0.255739
0.244128
0.237546
0.226978
0.21641
0.221153
0.230718
0.562102
0.630423
0.621997
0.408077
0.43268
0.373072
0.304053
0.264921
0.237319
0.245496
0.247454
0.245389
0.241195
0.233835
0.229509
0.220449
0.206381
0.21331
0.215689
0.521269
0.613972
0.601548
0.420939
0.406687
0.328677
0.276721
0.229349
0.216227
0.225569
0.230202
0.23299
0.228195
0.229908
0.224089
0.213038
0.199835
0.212427
0.212044
0.608278
0.635924
0.619662
0.388228
0.384998
0.306419
0.24972
0.218233
0.208868
0.222251
0.231565
0.23379
0.231821
0.230441
0.2266
0.209866
0.19978
0.212917
0.213837
0.514566
0.542368
0.583898
0.390734
0.364758
0.285027
0.259124
0.225268
0.224436
0.234952
0.242697
0.244352
0.248282
0.244846
0.224336
0.20859
0.203711
0.208116
0.208865
0.454431
0.600403
0.582005
0.389259
0.303082
0.269689
0.262992
0.24969
0.24812
0.25304
0.259893
0.250155
0.246248
0.227679
0.209141
0.202217
0.205565
0.202143
0.20473
0.484474
0.547489
0.537994
0.48721
0.380388
0.258995
0.277591
0.276549
0.255966
0.256206
0.256962
0.237495
0.214366
0.205215
0.204813
0.205349
0.198675
0.19955
0.199266
0.471936
0.520087
0.524115
0.504138
0.397935
0.287396
0.294907
0.265348
0.240243
0.224295
0.227615
0.216585
0.207003
0.200683
0.20414
0.210828
0.203687
0.180144
0.193492
0.513116
0.481189
0.487501
0.464351
0.322079
0.280132
0.287461
0.255191
0.234425
0.215063
0.209571
0.222574
0.211922
0.198143
0.203964
0.204541
0.195688
0.185618
0.184151
0.483552
0.485629
0.474038
0.432316
0.387488
0.344141
0.253014
0.246662
0.233509
0.222228
0.211568
0.201958
0.210708
0.208541
0.193226
0.191276
0.192744
0.18785
0.187709
0.46259
0.35344
0.459607
0.453256
0.446284
0.339689
0.263164
0.270674
0.242084
0.218235
0.216515
0.208247
0.201136
0.207617
0.198227
0.185624
0.201809
0.193765
0.183965
0.459039
0.477688
0.56043
0.425631
0.402519
0.349718
0.261656
0.261928
0.241532
0.222095
0.205896
0.212187
0.205531
0.188782
0.200341
0.187864
0.198302
0.204184
0.197285
0.437506
0.476062
0.461628
0.458665
0.398882
0.340364
0.271865
0.263578
0.237098
0.230051
0.210686
0.200402
0.207825
0.200895
0.191571
0.199421
0.192015
0.207312
0.202903
0.534244
0.465787
0.475152
0.440915
0.421889
0.31984
0.256558
0.271424
0.23801
0.22855
0.225078
0.204233
0.211551
0.207933
0.192826
0.202597
0.194751
0.193886
0.207654
0.521899
0.465915
0.473928
0.4488
0.35133
0.275717
0.245679
0.26484
0.240417
0.216104
0.220138
0.208025
0.201167
0.209728
0.2007
0.187974
0.199398
0.189285
0.197745
0.364144
0.474211
0.509784
0.601382
0.569133
0.531812
0.515448
0.514199
0.49453
0.430185
0.419411
0.405304
0.371096
0.33915
0.338669
0.317817
0.302287
0.28855
0.283537
0.450541
0.623852
0.422712
0.487383
0.593042
0.570811
0.484489
0.477887
0.425724
0.391704
0.377782
0.358821
0.331263
0.319078
0.317306
0.299761
0.258503
0.248307
0.239221
0.406353
0.5499
0.582476
0.5619
0.604972
0.506738
0.438747
0.422462
0.379842
0.34506
0.334716
0.324088
0.296691
0.289404
0.283465
0.247626
0.23307
0.236574
0.238147
0.442009
0.502813
0.602576
0.571492
0.583946
0.505568
0.399099
0.354593
0.329377
0.293231
0.288874
0.284473
0.261238
0.259858
0.258845
0.225134
0.221461
0.226188
0.223741
0.4552
0.507595
0.593212
0.551602
0.574789
0.425106
0.343027
0.299973
0.285931
0.271586
0.25912
0.258397
0.244783
0.241112
0.227686
0.210474
0.206255
0.209845
0.210095
0.352387
0.58698
0.617497
0.521914
0.561933
0.40068
0.298972
0.253457
0.235604
0.237603
0.225158
0.226042
0.229565
0.216549
0.212319
0.201678
0.193993
0.201713
0.209097
0.479413
0.582694
0.550102
0.517527
0.522297
0.36188
0.270438
0.234644
0.209075
0.210944
0.218218
0.218937
0.219095
0.211794
0.212557
0.191981
0.186262
0.190362
0.192857
0.45628
0.527746
0.582978
0.500285
0.485871
0.325565
0.26877
0.21088
0.208138
0.205474
0.212763
0.2287
0.228596
0.216779
0.201948
0.183129
0.187685
0.192484
0.190059
0.481592
0.535435
0.606141
0.485045
0.458463
0.298172
0.269954
0.233482
0.214308
0.234254
0.232461
0.246904
0.229975
0.220001
0.199963
0.181824
0.185457
0.180512
0.188517
0.451284
0.518178
0.578664
0.496999
0.309357
0.271748
0.300212
0.252133
0.24927
0.25065
0.237238
0.236451
0.218722
0.204897
0.18407
0.193909
0.188211
0.183027
0.182869
0.45386
0.545235
0.558147
0.460472
0.325268
0.318647
0.296442
0.269108
0.250185
0.235086
0.224951
0.215362
0.193139
0.191001
0.191698
0.187509
0.197508
0.182595
0.177371
0.426484
0.564089
0.496422
0.452828
0.376234
0.349569
0.325628
0.277017
0.248853
0.199675
0.204926
0.210802
0.191583
0.194532
0.191023
0.180914
0.182899
0.181416
0.181021
0.448509
0.480472
0.479463
0.479382
0.300385
0.326837
0.302761
0.259797
0.231756
0.208187
0.18825
0.211401
0.201061
0.194249
0.206519
0.191817
0.175801
0.174879
0.182924
0.4229
0.440761
0.468722
0.42062
0.385547
0.315416
0.276416
0.255454
0.218343
0.220396
0.223952
0.185488
0.20085
0.185232
0.185002
0.189219
0.184305
0.174018
0.176502
0.404082
0.412817
0.452882
0.428304
0.388601
0.320495
0.296841
0.297666
0.246545
0.213814
0.216128
0.206127
0.197895
0.196765
0.189006
0.179566
0.18796
0.175663
0.17719
0.396846
0.431274
0.464821
0.418801
0.397157
0.338176
0.291812
0.284948
0.259572
0.224196
0.200907
0.206458
0.183857
0.192566
0.196364
0.177501
0.182414
0.190174
0.181087
0.389531
0.459899
0.479229
0.425415
0.376824
0.322839
0.293568
0.278025
0.234264
0.230399
0.211824
0.193077
0.199741
0.182568
0.190687
0.191203
0.183948
0.191713
0.189958
0.412381
0.424832
0.476399
0.437261
0.385912
0.284747
0.272944
0.308673
0.237262
0.217156
0.215651
0.193165
0.200375
0.18707
0.187666
0.197362
0.182837
0.188893
0.194557
0.411726
0.407636
0.455263
0.452066
0.392916
0.292294
0.264129
0.296285
0.270734
0.209842
0.215155
0.206521
0.193174
0.198319
0.185112
0.188848
0.192353
0.179309
0.18684
0.451313
0.429343
0.462219
0.389417
0.382906
0.326744
0.239938
0.257893
0.233742
0.209415
0.215682
0.206657
0.199391
0.206449
0.198129
0.185737
0.198058
0.187291
0.196129
0.399364
0.403166
0.443392
0.422726
0.374343
0.278452
0.256762
0.290097
0.259549
0.201723
0.2106
0.202041
0.189909
0.1967
0.184238
0.187825
0.191482
0.178662
0.185358
0.424025
0.421067
0.453748
0.432746
0.417736
0.319797
0.25075
0.263122
0.231938
0.227256
0.223446
0.210361
0.2205
0.209676
0.19394
0.203965
0.194741
0.189199
0.199236
0.384305
0.415833
0.475006
0.427426
0.375702
0.267446
0.271045
0.29892
0.241538
0.216942
0.22297
0.200097
0.207347
0.191096
0.192492
0.199498
0.18058
0.183117
0.186787
0.428885
0.438831
0.480686
0.496228
0.440021
0.35648
0.307266
0.283876
0.253106
0.250146
0.236184
0.225034
0.23162
0.219502
0.209674
0.210426
0.196859
0.205123
0.199052
0.382687
0.448691
0.496199
0.441493
0.381722
0.332719
0.317456
0.303713
0.249648
0.257135
0.230957
0.231872
0.228158
0.208362
0.210329
0.204125
0.189094
0.195217
0.179347
0.482682
0.469247
0.505469
0.460036
0.422498
0.329037
0.338243
0.30654
0.277615
0.253582
0.244781
0.250082
0.239576
0.236884
0.235255
0.219343
0.21506
0.210802
0.201236
0.420697
0.481144
0.481801
0.451909
0.421711
0.342435
0.325342
0.303091
0.28268
0.247503
0.235446
0.251418
0.236428
0.245664
0.241459
0.207709
0.20656
0.191304
0.180092
0.494684
0.496785
0.511368
0.506489
0.504938
0.377546
0.365313
0.331743
0.273622
0.252846
0.255242
0.244235
0.242726
0.252331
0.242235
0.228434
0.230408
0.220867
0.202934
0.420961
0.484155
0.518051
0.482588
0.441566
0.355676
0.344977
0.330801
0.277319
0.242773
0.249795
0.266759
0.229536
0.244092
0.227919
0.229871
0.226737
0.196303
0.194443
0.486206
0.501973
0.537028
0.474816
0.463964
0.396203
0.381304
0.328616
0.27354
0.262478
0.248075
0.237905
0.240217
0.237277
0.231632
0.240473
0.236604
0.226299
0.217394
0.418099
0.476374
0.496234
0.467219
0.464579
0.380973
0.344679
0.320695
0.274905
0.27615
0.234542
0.23406
0.242386
0.22187
0.228782
0.239669
0.216964
0.221881
0.206861
0.49489
0.430069
0.529049
0.485857
0.447392
0.372154
0.359785
0.343296
0.27601
0.24565
0.241615
0.247465
0.230765
0.232058
0.239493
0.234108
0.236945
0.232277
0.237338
0.418088
0.463744
0.521602
0.442542
0.429145
0.36179
0.341732
0.330053
0.278152
0.247634
0.239376
0.243431
0.221106
0.220634
0.241375
0.213665
0.214203
0.236298
0.239874
0.471385
0.480529
0.51053
0.476142
0.456993
0.391889
0.267125
0.23018
0.251285
0.245313
0.241332
0.228242
0.221518
0.228674
0.221205
0.230384
0.221727
0.238661
0.245149
0.468724
0.486976
0.500084
0.464833
0.416057
0.401112
0.219926
0.2702
0.262057
0.232825
0.24059
0.236236
0.216926
0.217374
0.224305
0.201437
0.221207
0.245682
0.226363
0.483186
0.479582
0.515858
0.422899
0.396751
0.360607
0.253368
0.24402
0.263167
0.254151
0.239386
0.221712
0.211271
0.220102
0.219329
0.210705
0.222884
0.232847
0.25368
0.407308
0.498772
0.471163
0.431007
0.377212
0.334873
0.282913
0.277349
0.271583
0.244605
0.210588
0.212887
0.216859
0.23149
0.184387
0.207719
0.217924
0.229882
0.224848
0.491148
0.503225
0.525698
0.333281
0.40262
0.353781
0.311329
0.289087
0.266922
0.244254
0.236274
0.226763
0.226573
0.215601
0.210686
0.211408
0.225127
0.238242
0.237562
0.427426
0.479713
0.574084
0.43519
0.395946
0.368458
0.345006
0.289146
0.262331
0.237579
0.215753
0.220565
0.228512
0.213722
0.186605
0.206011
0.22622
0.205559
0.218546
0.471667
0.466096
0.456695
0.435858
0.388473
0.262877
0.288149
0.27317
0.265892
0.245001
0.238351
0.237062
0.232137
0.220057
0.202267
0.209107
0.218866
0.230609
0.240578
0.400211
0.495954
0.495315
0.424466
0.362776
0.308081
0.310698
0.277133
0.258534
0.233885
0.227327
0.241957
0.214945
0.206324
0.192955
0.2064
0.224844
0.18546
0.214239
0.458203
0.48728
0.505585
0.432578
0.358749
0.254908