/*--------------------------------*- C++ -*----------------------------------*\
| =========                 |                                                 |
| \\      /  F ield         | foam-extend: Open Source CFD                    |
|  \\    /   O peration     | Version:     3.1                                |
|   \\  /    A nd           | Web:         http://www.extend-project.de       |
|    \\/     M anipulation  |                                                 |
\*---------------------------------------------------------------------------*/
FoamFile
{
    version     2.0;
    format      ascii;
    class       volScalarField;
    location    "172800";
    object      X;
}
// * * * * * * * * * * * * * * * * * * * * * * * * * * * * * * * * * * * * * //

dimensions      [0 1 0 0 0 0 0];

internalField   nonuniform List<scalar> 
21211
(
0.00644658
0.00644658
0.00644658
0.00644659
0.0064466
0.00644661
0.00644664
0.00644672
0.00644679
0.00644988
0.00644988
0.00644988
0.00644992
0.00644995
0.00644998
0.00645008
0.00645029
0.00645053
0.00663289
0.00663289
0.0066329
0.0066329
0.00663289
0.00663291
0.00663295
0.00663297
0.0066329
0.00664656
0.00664656
0.00664657
0.00664658
0.0066466
0.00664663
0.00664671
0.00664684
0.00664691
0.00682139
0.0068214
0.0068214
0.00682142
0.00682141
0.00682142
0.00682147
0.00682145
0.00682127
0.00684572
0.00684572
0.00684573
0.00684575
0.00684576
0.00684578
0.00684583
0.00684589
0.00684578
0.00701195
0.00701195
0.00701195
0.00701196
0.00701195
0.00701198
0.00701205
0.00701213
0.00701203
0.00704687
0.00704687
0.00704687
0.00704688
0.00704689
0.00704691
0.00704696
0.00704705
0.00704661
0.00720337
0.00720337
0.00720338
0.00720339
0.00720338
0.00720341
0.00720348
0.0072034
0.00720335
0.00724821
0.00724821
0.00724821
0.0072482
0.00724821
0.00724822
0.00724827
0.00724828
0.00724748
0.00739568
0.00739568
0.00739568
0.00739568
0.00739567
0.00739571
0.00739582
0.00739592
0.00739598
0.00745086
0.00745086
0.00745086
0.00745087
0.00745087
0.00745088
0.00745092
0.00745092
0.00745017
0.00759049
0.0075905
0.0075905
0.00759051
0.00759047
0.00759052
0.00759063
0.00759047
0.00758994
0.00765626
0.00765626
0.00765626
0.00765626
0.00765625
0.00765625
0.00765626
0.00765616
0.00765514
0.00778545
0.00778545
0.00778546
0.00778547
0.00778549
0.00778549
0.0077856
0.00778571
0.00778522
0.00786182
0.00786182
0.00786181
0.0078618
0.00786179
0.00786179
0.00786177
0.00786162
0.00786014
0.00798181
0.00798184
0.00798187
0.00798189
0.00798191
0.00798188
0.00798197
0.00798178
0.00798104
0.00806957
0.00806957
0.00806957
0.00806956
0.00806955
0.00806952
0.00806947
0.00806917
0.00806722
0.00818188
0.00818188
0.00818185
0.00818185
0.00818187
0.00818189
0.00818195
0.00818228
0.00818137
0.0082786
0.0082786
0.0082786
0.0082786
0.00827858
0.00827852
0.0082784
0.00827806
0.00827536
0.00837897
0.00837898
0.00837891
0.00837889
0.00837892
0.00837897
0.00845655
0.00837799
0.00837747
0.00848552
0.00848551
0.0084855
0.00848549
0.00848546
0.00848529
0.00848473
0.00848442
0.0084815
0.00857593
0.00857594
0.00857594
0.00857596
0.00857599
0.00857624
0.0085804
0.00857825
0.00857545
0.00869056
0.00869055
0.00869055
0.00869054
0.00869053
0.00869058
0.00869059
0.00868985
0.00868516
0.0087627
0.00876271
0.00876272
0.00876274
0.00876279
0.00876292
0.00876271
0.00876271
0.00876074
0.00888183
0.00888182
0.00888182
0.00888182
0.00888183
0.00888185
0.00888182
0.00888099
0.00887559
0.00893372
0.00893373
0.00893374
0.00893377
0.00893382
0.00893392
0.00893411
0.00893423
0.00893205
0.0090591
0.0090591
0.0090591
0.0090591
0.00905908
0.00905904
0.00905888
0.00905792
0.00905218
0.00908936
0.00908936
0.00908937
0.0090894
0.00908945
0.00908957
0.00908977
0.00908989
0.00908768
0.00921915
0.00921915
0.00921914
0.00921913
0.00921911
0.00921905
0.00921887
0.00921783
0.009212
0.00922883
0.00922884
0.00922886
0.00922888
0.00922894
0.00922906
0.00922926
0.00922929
0.00922601
0.00936124
0.00936124
0.00936123
0.00936122
0.00936118
0.00936111
0.00936086
0.00935951
0.00935221
0.00933985
0.00933986
0.00933987
0.0093399
0.00933996
0.00934008
0.00934027
0.00934013
0.0093356
0.00947391
0.00947391
0.0094739
0.00947388
0.00947383
0.00947374
0.00947342
0.00947162
0.00946175
0.00941664
0.00941665
0.00941666
0.00941669
0.00941675
0.00941687
0.00941707
0.00941691
0.00941223
0.00955133
0.00955132
0.00955131
0.00955129
0.00955123
0.00955113
0.00955079
0.00954894
0.00953859
0.00945087
0.00945087
0.00945089
0.00945092
0.00945098
0.0094511
0.00945131
0.00945115
0.00944618
0.00958596
0.00958595
0.00958594
0.00958591
0.00958586
0.00958576
0.00958544
0.00958356
0.00957266
0.00635416
0.00635415
0.00635415
0.00635417
0.00635418
0.00635418
0.00635422
0.00635425
0.00635449
0.00617293
0.00617293
0.00617289
0.0061729
0.00612471
0.0061731
0.006173
0.00612494
0.0061262
0.00594328
0.00594325
0.00599367
0.00599354
0.00599308
0.00594324
0.00594326
0.00599316
0.00599367
0.0058182
0.00581819
0.00581842
0.0058185
0.00581849
0.00581824
0.00581817
0.00581847
0.00581976
0.0056489
0.0056489
0.00564888
0.00564887
0.00564887
0.00564889
0.00564889
0.00564893
0.00564992
0.00548082
0.00548082
0.00548083
0.00548082
0.00548082
0.00548081
0.00548078
0.0054808
0.00548183
0.00531513
0.00531513
0.00531514
0.00531514
0.00531513
0.00531512
0.00531508
0.00531516
0.0053168
0.00515192
0.00515192
0.00515191
0.00515192
0.00515191
0.00515189
0.00515185
0.00515191
0.00515373
0.00499081
0.0049908
0.0049908
0.00499082
0.0049908
0.00499076
0.00499069
0.00499073
0.00499293
0.00483345
0.00483345
0.00483345
0.00483344
0.00483345
0.0048334
0.00483332
0.00483333
0.00483578
0.00467724
0.00467723
0.00467723
0.00467722
0.00467723
0.00467717
0.00467705
0.00467703
0.00467945
0.0045276
0.0045276
0.0045276
0.00452759
0.00452757
0.00452751
0.00452741
0.00452738
0.00453005
0.00439138
0.00439138
0.00439137
0.00439136
0.00439134
0.00439132
0.00439123
0.00439121
0.00439349
0.00426988
0.00426988
0.00426988
0.00426986
0.00426984
0.00426979
0.00426969
0.00426965
0.0042717
0.00416486
0.00416486
0.00416485
0.00416484
0.00416481
0.00416475
0.00416463
0.00416459
0.00416669
0.0040816
0.0040816
0.00408159
0.00408158
0.00408155
0.00408149
0.00408136
0.00408131
0.00408367
0.00402302
0.00402302
0.00402301
0.004023
0.00402297
0.0040229
0.00402276
0.00402273
0.00402496
0.00398058
0.00398058
0.00398057
0.00398056
0.00398053
0.00398046
0.00398032
0.00398031
0.00398307
0.00396345
0.00396345
0.00396344
0.00396343
0.0039634
0.00396333
0.00396319
0.00396318
0.00396596
0.0063526
0.00635259
0.0063526
0.00635264
0.00635268
0.0063527
0.0063528
0.00635305
0.00635344
0.00616128
0.00616127
0.00616124
0.00616123
0.00616119
0.00616132
0.00616145
0.00616158
0.00616231
0.00597083
0.00597085
0.00597093
0.00597098
0.00597101
0.00597098
0.00597104
0.00597127
0.00597228
0.00578685
0.00578684
0.00578671
0.00578663
0.00578664
0.00578681
0.00578694
0.00578711
0.00578858
0.0056068
0.0056068
0.0056068
0.00560682
0.00560683
0.00560686
0.00560692
0.00560717
0.00560881
0.00542943
0.00542943
0.00542943
0.00542945
0.00542947
0.00542949
0.00542951
0.00542968
0.00543128
0.00525397
0.00525397
0.00525397
0.00525397
0.00525399
0.005254
0.00525403
0.00525431
0.00525687
0.00508049
0.00508049
0.00508049
0.0050805
0.0050805
0.00508051
0.00508049
0.00508072
0.00508377
0.00491013
0.00491013
0.00491013
0.00491012
0.00491012
0.0049101
0.00491005
0.00491022
0.00491374
0.00474378
0.00474378
0.00474378
0.00474377
0.00474376
0.00474373
0.00474363
0.00474381
0.00474775
0.00457805
0.00457805
0.00457805
0.00457805
0.00457805
0.00457802
0.00457792
0.00457801
0.00458221
0.00442065
0.00442065
0.00442065
0.00442065
0.00442065
0.00442064
0.00442059
0.00442092
0.00442558
0.00427773
0.00427774
0.00427774
0.00427774
0.00427775
0.00427775
0.00427775
0.00427819
0.00428331
0.0041491
0.0041491
0.0041491
0.00414911
0.00414912
0.00414913
0.00414914
0.00414958
0.00415449
0.004039
0.00403901
0.00403901
0.00403901
0.00403902
0.00403903
0.00403904
0.0040395
0.00404448
0.00395149
0.00395149
0.0039515
0.0039515
0.00395152
0.00395153
0.00395155
0.00395207
0.00395722
0.00388901
0.00388902
0.00388902
0.00388903
0.00388905
0.00388907
0.0038891
0.00388967
0.00389472
0.00384552
0.00384553
0.00384553
0.00384555
0.00384557
0.0038456
0.00384564
0.00384627
0.00385196
0.00382717
0.00382717
0.00382718
0.00382719
0.00382722
0.00382724
0.00382728
0.0038279
0.00383379
0.00640212
0.00634428
0.00628655
0.0062295
0.00617224
0.00611456
0.00605716
0.00599971
0.00594191
0.00588392
0.00582584
0.00576772
0.00570938
0.00565111
0.00559393
0.00553748
0.00548099
0.00542391
0.00536654
0.00640061
0.00634331
0.00628623
0.00622941
0.00617179
0.00611395
0.00605636
0.00599889
0.00594146
0.00588417
0.00582744
0.0057713
0.00571505
0.00565789
0.00560038
0.00554314
0.00548648
0.00543033
0.00537433
0.00645911
0.00640135
0.00634391
0.00628693
0.00622968
0.00617196
0.00611435
0.0060567
0.00599905
0.00594132
0.00588342
0.0058252
0.00576669
0.00570814
0.00565007
0.00559302
0.00553662
0.00548004
0.00542291
0.0064577
0.00639894
0.00634161
0.00628536
0.00622852
0.0061709
0.00611321
0.00605565
0.00599832
0.00594112
0.00588389
0.00582713
0.00577091
0.00571439
0.00565726
0.00559972
0.00554237
0.00548553
0.00542934
0.00651604
0.00645867
0.00640181
0.00634453
0.00628663
0.00622869
0.00617092
0.00611305
0.0060555
0.00599816
0.00594056
0.00588258
0.00582435
0.00576595
0.00570753
0.00564972
0.00559254
0.00553596
0.00547934
0.00651488
0.00645606
0.00639822
0.00634152
0.00628511
0.00622819
0.00617089
0.00611319
0.00605569
0.00599852
0.005941
0.00588341
0.00582637
0.00577018
0.0057139
0.00565683
0.00559927
0.00554189
0.00548494
0.00657422
0.00651645
0.0064596
0.00640243
0.00634421
0.00628557
0.00622744
0.00616941
0.00611165
0.0060544
0.00599709
0.00593948
0.00588175
0.00582378
0.00576566
0.00570761
0.00564966
0.00559224
0.0055355
0.00657246
0.00651415
0.00645644
0.00639922
0.00634226
0.00628544
0.00622874
0.0061714
0.00611366
0.00605612
0.00599856
0.00594053
0.00588269
0.00582631
0.00577025
0.00571362
0.00565665
0.00559913
0.00554157
0.00663371
0.00657499
0.00651714
0.00645988
0.00640194
0.00634321
0.00628472
0.00622669
0.0061689
0.0061111
0.00605334
0.00599584
0.00593868
0.00588148
0.00582385
0.00576588
0.00570761
0.00564937
0.00559199
0.0066302
0.00657244
0.00651544
0.00645817
0.00640008
0.006342
0.00628528
0.00622893
0.00617177
0.00611428
0.0060565
0.00599835
0.00594061
0.00588335
0.00582616
0.0057698
0.00571369
0.0056567
0.0055991
0.00669338
0.00663442
0.00657551
0.00651718
0.00645945
0.0064015
0.00634328
0.00628522
0.00622745
0.00616924
0.00611067
0.00605258
0.00599543
0.00593896
0.00588198
0.00582409
0.00576583
0.00570749
0.00564949
0.00668895
0.00663111
0.00657361
0.00651583
0.00645758
0.00639921
0.00634159
0.00628512
0.00622916
0.00617253
0.00611481
0.00605652
0.0059986
0.00594049
0.00588233
0.00582559
0.00576999
0.00571394
0.00565684
0.00675274
0.00669405
0.00663492
0.00657564
0.00651743
0.00645987
0.0064022
0.00634411
0.00628593
0.00622782
0.00616934
0.00611058
0.00605272
0.00599621
0.0059398
0.00588234
0.00582424
0.00576618
0.00570786
0.00674809
0.00668948
0.00663082
0.00657235
0.00651484
0.00645747
0.00639936
0.00634152
0.0062854
0.00622976
0.0061729
0.00611486
0.00605638
0.00599794
0.00593975
0.0058823
0.00582613
0.00577042
0.00571392
0.00681318
0.00675431
0.00669505
0.00663567
0.00657652
0.00651806
0.00646039
0.00640256
0.00634426
0.00628604
0.00622794
0.00616935
0.00611076
0.00605358
0.00599723
0.00594017
0.00588243
0.0058246
0.00576644
0.00680705
0.00674793
0.00668889
0.00663006
0.00657215
0.00651518
0.00645778
0.00639945
0.00634171
0.00628565
0.00622988
0.00617278
0.00611434
0.00605567
0.00599759
0.00593989
0.00588289
0.00582653
0.00577
0.00687483
0.00681502
0.00675534
0.0066959
0.00663641
0.00657685
0.0065182
0.00646045
0.00640253
0.00634415
0.00628579
0.00622758
0.00616908
0.00611127
0.00605451
0.00599761
0.00594025
0.00588267
0.00582473
0.00686669
0.00680732
0.00674823
0.00668922
0.00663049
0.00657266
0.00651549
0.00645781
0.00639944
0.00634175
0.0062857
0.00622968
0.00617209
0.00611353
0.00605508
0.0059973
0.00594005
0.00588306
0.00582612
0.00693603
0.00687562
0.00681551
0.00675578
0.00669626
0.00663651
0.00657688
0.00651819
0.00646033
0.00640217
0.00634358
0.00628517
0.00622693
0.00616893
0.00611177
0.00605507
0.00599796
0.00594048
0.00588269
0.00692703
0.00686726
0.00680792
0.00674895
0.00668973
0.00663047
0.00657251
0.00651547
0.00645771
0.00639929
0.00634166
0.00628544
0.00622913
0.00617141
0.00611277
0.00605471
0.0059974
0.0059402
0.00588304
0.00699559
0.00693505
0.0068749
0.00681519
0.00675569
0.00669614
0.00663642
0.00657692
0.00651831
0.00646012
0.00640171
0.0063431
0.00628438
0.0062263
0.00616915
0.00611241
0.00605545
0.00599807
0.00594051
0.00698752
0.00692725
0.00686747
0.00680825
0.00674876
0.0066891
0.00663038
0.00657266
0.00651538
0.00645751
0.00639909
0.00634142
0.00628513
0.00622859
0.0061706
0.00611239
0.00605482
0.0059976
0.00594041
0.00705452
0.00699354
0.0069333
0.00687379
0.00681462
0.00675534
0.00669586
0.00663653
0.00657728
0.00651827
0.0064598
0.00640128
0.00634238
0.00628395
0.00622663
0.0061698
0.00611276
0.00605534
0.00599786
0.00704802
0.00698742
0.00692711
0.00686728
0.00680774
0.00674848
0.00668917
0.00663022
0.00657229
0.00651501
0.00645715
0.00639854
0.00634117
0.00628497
0.00622801
0.00617022
0.00611244
0.00605506
0.00599787
0.00711501
0.00705306
0.00699212
0.00693222
0.00687302
0.00681405
0.00675494
0.00669578
0.00663657
0.00657709
0.00651805
0.00645943
0.00640063
0.00634187
0.00628417
0.00622731
0.00617016
0.00611264
0.00605487
0.00710909
0.00704802
0.00698714
0.00692683
0.006867
0.00680727
0.00674784
0.00668857
0.00662963
0.00657184
0.0065144
0.00645639
0.00639868
0.00634199
0.0062852
0.00622786
0.00617031
0.00611272
0.0060554
0.00717762
0.00711454
0.00705247
0.00699149
0.00693158
0.00687251
0.00681376
0.00675473
0.00669554
0.0066363
0.00657679
0.00651752
0.00645854
0.0064
0.00634238
0.00628512
0.00622774
0.00617027
0.00611261
0.00717127
0.00710918
0.00704766
0.00698672
0.00692589
0.00686571
0.00680649
0.00674745
0.00668814
0.00662917
0.00657137
0.00651422
0.00645729
0.00640027
0.00634251
0.00628508
0.00622806
0.00617061
0.00611306
0.00724117
0.00717729
0.00711423
0.00705205
0.00699089
0.00693119
0.00687258
0.0068139
0.00675471
0.00669537
0.0066357
0.00657581
0.00651652
0.00645842
0.00640128
0.00634391
0.00628596
0.00622814
0.00617065
0.00723378
0.00717092
0.00710892
0.00704758
0.00698586
0.00692492
0.00686547
0.00680632
0.00674704
0.00668779
0.00662918
0.00657155
0.00651512
0.00645832
0.00640015
0.00634218
0.00628524
0.00622842
0.00617099
0.00730531
0.00724068
0.00717696
0.00711369
0.00705114
0.00699055
0.00693162
0.00687322
0.00681438
0.00675481
0.00669498
0.0066349
0.00657489
0.00651624
0.00645942
0.00640273
0.00634465
0.00628612
0.00622817
0.00729666
0.00723325
0.00717081
0.00710904
0.0070473
0.00698563
0.00692494
0.00686531
0.00680614
0.00674715
0.00668798
0.00662948
0.00657239
0.00651575
0.00645793
0.00639943
0.00634189
0.00628541
0.00622875
0.00737003
0.00730482
0.00724073
0.0071768
0.0071129
0.00705105
0.00699151
0.00693305
0.00687443
0.00681486
0.00675478
0.00669454
0.00663393
0.0065744
0.00651699
0.00646022
0.0064027
0.0063443
0.00628579
0.00735986
0.00729621
0.00723309
0.00717052
0.00710889
0.00704752
0.0069859
0.00692535
0.00686586
0.00680666
0.00674741
0.00668847
0.00663071
0.00657347
0.00651541
0.00645688
0.00639882
0.00634172
0.00628562
0.0074348
0.00736914
0.00730449
0.00724049
0.00717622
0.00711336
0.00705263
0.00699345
0.00693478
0.00687531
0.00681492
0.00675433
0.00669369
0.00663423
0.00657552
0.0065172
0.0064597
0.00640198
0.00634396
0.00742294
0.00735976
0.00729597
0.00723295
0.00717117
0.00710967
0.00704821
0.00698693
0.00692629
0.0068666
0.00680695
0.00674788
0.00668994
0.00663166
0.00657247
0.00651431
0.00645647
0.00639854
0.00634192
0.00749924
0.00743363
0.00736914
0.00730453
0.00724021
0.00717669
0.00711445
0.00705421
0.0069954
0.0069361
0.00687539
0.00681392
0.00675334
0.00669423
0.00663484
0.00657517
0.00651677
0.00645947
0.00640244
0.00748531
0.00742276
0.00735956
0.00729631
0.00723381
0.00717155
0.00710992
0.00704833
0.00698703
0.00692677
0.00686673
0.00680749
0.00674922
0.00669005
0.00663021
0.00657217
0.0065149
0.00645689
0.00639918
0.00649486
0.00644651
0.00644581
0.00648886
0.00648579
0.006483
0.00648021
0.00647637
0.00647216
0.00646841
0.00646505
0.00646112
0.00645694
0.00645309
0.00644871
0.00644431
0.00644078
0.00643744
0.00643362
0.00645095
0.00645069
0.00645024
0.00644924
0.00644758
0.00648629
0.00648296
0.00647927
0.00647516
0.00647112
0.00646675
0.00646206
0.006458
0.00645419
0.00644971
0.00644521
0.00644043
0.00643533
0.00643127
0.00668148
0.00662738
0.00662229
0.00661518
0.00660738
0.00664267
0.00663307
0.00662201
0.00661055
0.0065999
0.00658888
0.00657724
0.00656523
0.00655268
0.00653973
0.00652751
0.00651615
0.00650499
0.00649387
0.00669795
0.00664167
0.00663588
0.00662878
0.00662088
0.00661234
0.00660334
0.00663125
0.00661932
0.00660735
0.0065944
0.00658101
0.00656814
0.00655574
0.00654356
0.0065312
0.00651838
0.00650527
0.00649314
0.00687117
0.00681021
0.00680016
0.00678869
0.00677582
0.00680576
0.00678886
0.00677091
0.00675215
0.00673369
0.00671475
0.00669498
0.00667514
0.00665433
0.00663261
0.00661237
0.00659307
0.00657378
0.00655485
0.00689836
0.00683547
0.00682431
0.00681134
0.00679718
0.00678235
0.00676628
0.00678739
0.00676681
0.00674602
0.00672437
0.00670242
0.00668096
0.00666021
0.00663961
0.00661872
0.0065972
0.00657569
0.00655508
0.0070628
0.0069958
0.00698208
0.00696644
0.00694789
0.00692728
0.0069056
0.00692266
0.00689612
0.00686936
0.0068421
0.00681381
0.00678613
0.00675726
0.00672761
0.00669932
0.00667163
0.00664428
0.00661741
0.0070426
0.00703018
0.00701486
0.00699722
0.00697726
0.00695538
0.00693212
0.0069455
0.00691665
0.00688744
0.00685725
0.00682685
0.00679668
0.00676708
0.00673749
0.00670757
0.00667733
0.00664743
0.00661761
0.0072564
0.00718586
0.00716451
0.0071433
0.00712006
0.00709388
0.00706666
0.0070761
0.00704119
0.00700612
0.00697038
0.00693394
0.0068979
0.00686093
0.00682339
0.00678699
0.00675114
0.00671572
0.00668099
0.00724143
0.00722628
0.00720749
0.00718524
0.00715997
0.00713134
0.00710009
0.00706725
0.00703295
0.00703038
0.00699167
0.00695276
0.00691296
0.00687345
0.00683487
0.00679647
0.00675828
0.00671957
0.00667997
0.00745016
0.00737621
0.00734987
0.00732203
0.00729318
0.00726177
0.00722806
0.00722941
0.00718689
0.00714391
0.0070996
0.00705493
0.00701029
0.00696522
0.00691993
0.00687549
0.0068314
0.00678784
0.00674485
0.00744368
0.00742458
0.00740038
0.00737329
0.00734269
0.00730787
0.00726885
0.00722818
0.0071859
0.00717444
0.00712671
0.00707785
0.00702788
0.00697937
0.00693241
0.00688597
0.00683922
0.00679108
0.00674263
0.00764384
0.00756311
0.00753352
0.00750204
0.00746984
0.00743189
0.00738944
0.00734524
0.00729818
0.00728262
0.00722909
0.00717603
0.00712335
0.00706924
0.00701568
0.00696338
0.00691141
0.00685984
0.00680849
0.00764826
0.00762691
0.00759788
0.00756359
0.0075266
0.00748553
0.00743903
0.00739065
0.00734004
0.00731832
0.00726048
0.00720146
0.00714314
0.00708679
0.00703109
0.0069755
0.00691915
0.00686233
0.00680605
0.00777783
0.0077528
0.00771939
0.00768449
0.00764794
0.00760295
0.00755399
0.00750315
0.00744818
0.00742074
0.00735805
0.00729668
0.00723505
0.00717254
0.00711126
0.00705108
0.00699134
0.00693183
0.00687266
0.007851
0.00782661
0.00779461
0.00775534
0.00771142
0.00766302
0.00760909
0.00755192
0.00749239
0.00746048
0.00739301
0.00732482
0.00725875
0.0071942
0.0071291
0.00706306
0.00699744
0.00693316
0.00686933
0.00797217
0.00794699
0.0079122
0.00786982
0.00782162
0.00776964
0.007713
0.0076558
0.00759376
0.00755729
0.00748644
0.00741508
0.00734425
0.0072751
0.00720697
0.00713896
0.00707138
0.00700421
0.00693802
0.00805663
0.00802919
0.00799124
0.00794703
0.00789516
0.0078376
0.007776
0.00771116
0.00764266
0.00760052
0.00752477
0.00744824
0.00737258
0.00729812
0.00722332
0.00714832
0.00707515
0.00700363
0.00693254
0.00816864
0.00814229
0.00810493
0.00805287
0.00799662
0.00794059
0.00787403
0.00780573
0.00773483
0.00769113
0.00761219
0.00753138
0.00745229
0.00737651
0.00730117
0.00722537
0.00715006
0.0070758
0.00700295
0.00826209
0.00823259
0.00819006
0.00813731
0.00807689
0.00801253
0.00794386
0.00786996
0.00779129
0.00771248
0.00763253
0.00756891
0.00748302
0.00739864
0.00731578
0.00723422
0.00715393
0.00707469
0.00699646
0.00836147
0.00833317
0.00828725
0.00823108
0.00817359
0.00810685
0.00802983
0.00795568
0.00787708
0.00782111
0.00773422
0.00764619
0.00755938
0.00747503
0.00739174
0.00730891
0.00722638
0.00714506
0.0070658
0.00846732
0.00843347
0.00838455
0.00832333
0.00825729
0.00818663
0.00810807
0.00802451
0.00793783
0.00784935
0.00775979
0.00768464
0.00759091
0.00749912
0.0074092
0.00732124
0.00723356
0.00714635
0.00706082
0.00855232
0.008517
0.00846664
0.00840868
0.00834178
0.00826347
0.00818322
0.00810088
0.00801422
0.00794608
0.00785156
0.00775684
0.00766244
0.00756955
0.00747931
0.00739114
0.00730213
0.00721384
0.00712818
0.00866456
0.00862525
0.00857162
0.00850664
0.00843336
0.00835313
0.00826591
0.00817507
0.0080793
0.00798174
0.00788285
0.00779699
0.00769739
0.00759906
0.0075016
0.00740665
0.00731213
0.0072178
0.00712496
0.00873588
0.00869709
0.00864369
0.00857741
0.00850292
0.00841952
0.00833043
0.00824078
0.00814258
0.00806546
0.00796303
0.00786154
0.00776174
0.00766304
0.00756657
0.00747256
0.00737812
0.00728435
0.00719242
0.00885419
0.00881316
0.00875275
0.00868012
0.00860162
0.0085147
0.00841892
0.00831782
0.00821275
0.00810756
0.00800058
0.00790558
0.00779935
0.00769466
0.00759098
0.00748899
0.00738875
0.00728869
0.0071894
0.00890445
0.00886381
0.00880948
0.00873248
0.0086545
0.0085645
0.00846906
0.0083687
0.00826265
0.0081769
0.00806813
0.00796126
0.00785727
0.00775403
0.00765181
0.00755151
0.0074531
0.00735545
0.00725829
0.00902804
0.00898481
0.00892207
0.00884405
0.00875759
0.00866213
0.00855869
0.00845045
0.00833809
0.00822506
0.00811064
0.00800631
0.00789378
0.00778387
0.00767574
0.00756819
0.00746313
0.00735892
0.00725491
0.00906707
0.00902001
0.00895404
0.00887682
0.00879351
0.00869666
0.00859726
0.00848808
0.00837159
0.00827746
0.00816513
0.00805404
0.00794488
0.00783786
0.00773245
0.00762835
0.00752643
0.00742543
0.00732438
0.0091882
0.00914145
0.00907374
0.00899161
0.00889841
0.00879652
0.00868726
0.00857187
0.00845159
0.0083315
0.00821165
0.00810012
0.00798245
0.00786744
0.00775471
0.00764351
0.0075346
0.0074275
0.00732023
0.00919462
0.00914665
0.00908052
0.00899765
0.0089024
0.00880613
0.00870399
0.00858938
0.00846863
0.00836832
0.00825322
0.0081382
0.00802503
0.00791532
0.00780822
0.00770218
0.00759722
0.00749352
0.00739026
0.00932389
0.00927414
0.00920062
0.00911105
0.00901381
0.0089102
0.0087953
0.00867533
0.00855084
0.00842714
0.00830503
0.008187
0.00806558
0.00794659
0.00783002
0.0077161
0.00760386
0.00749361
0.00738436
0.00929398
0.00923867
0.00916861
0.00908227
0.00898695
0.00888806
0.00877962
0.00866858
0.00854969
0.00844756
0.00833035
0.00821417
0.00810015
0.00798833
0.00787936
0.00777159
0.0076648
0.00755939
0.00745548
0.00942451
0.0093674
0.00929016
0.00919864
0.00909843
0.00899194
0.00887833
0.00875809
0.00863317
0.00851083
0.00838758
0.00826386
0.00814116
0.00802113
0.00790287
0.00778636
0.00767115
0.00755793
0.0074476
0.00937323
0.0093011
0.00922241
0.00913034
0.00904082
0.00894311
0.00883675
0.00873175
0.00861951
0.0085121
0.00839589
0.00828195
0.0081684
0.00805658
0.00794644
0.007838
0.00773077
0.00762447
0.00752006
0.00949661
0.0094274
0.0093457
0.00925002
0.00914963
0.00904612
0.0089373
0.00882096
0.00870016
0.00857951
0.00845625
0.00833122
0.00820885
0.0080897
0.00797116
0.00785334
0.007737
0.00762206
0.00751031
0.00940219
0.00932747
0.00924851
0.00915478
0.00906862
0.00898168
0.00888346
0.00877639
0.00867314
0.0085633
0.00845146
0.00834072
0.00822875
0.00811863
0.00800918
0.00790123
0.00779493
0.00768939
0.00758441
0.00952719
0.0094537
0.00936647
0.00927278
0.0091778
0.009079
0.00897639
0.00886629
0.00875097
0.00862941
0.00850902
0.00838992
0.00826893
0.0081512
0.00803353
0.00791642
0.00780052
0.00768583
0.00757262
0.00631092
0.00635684
0.00635843
0.00631969
0.00632289
0.00632649
0.00633028
0.00633349
0.00633672
0.00633974
0.00634256
0.00634589
0.00634981
0.00635365
0.00635711
0.00636016
0.00636409
0.00636784
0.00637116
0.00613044
0.00613764
0.00614621
0.00615558
0.00616527
0.00617499
0.00618484
0.00619499
0.00620497
0.00621431
0.00622384
0.00623413
0.00624512
0.00625634
0.00626667
0.00627675
0.0062876
0.00629846
0.00630947
0.00595341
0.00596608
0.00598021
0.0059959
0.00601188
0.00602741
0.00604314
0.00605932
0.00607507
0.00609102
0.00610738
0.00612401
0.00614152
0.00615938
0.00617659
0.00619369
0.00621142
0.00622954
0.00624812
0.00582843
0.00584385
0.00581909
0.00583996
0.00586162
0.00588315
0.00590447
0.00592616
0.00594751
0.00596935
0.00599208
0.00601506
0.00603841
0.00606269
0.00608699
0.00611109
0.00613583
0.00616093
0.00618682
0.00565835
0.00567847
0.00566099
0.00568732
0.00571397
0.00574116
0.005768
0.00579496
0.00582209
0.00584924
0.00587769
0.00590683
0.00593617
0.00596686
0.00599792
0.00602904
0.0060609
0.00609278
0.00612566
0.00549126
0.00551553
0.00550439
0.00553686
0.00556881
0.00560141
0.00563355
0.0056655
0.00569789
0.00573043
0.00576426
0.00579941
0.00583502
0.00587135
0.00590864
0.00594687
0.00598557
0.00602448
0.00606462
0.00532945
0.00535623
0.00534903
0.00538791
0.0054259
0.00546328
0.00550025
0.00553729
0.0055746
0.00561267
0.00565207
0.00569287
0.00573436
0.00577656
0.00582013
0.00586484
0.00590999
0.00595604
0.00600362
0.00516834
0.00519887
0.00519657
0.00524155
0.00528442
0.00532602
0.00536781
0.00540996
0.00545227
0.00549569
0.00554055
0.00558675
0.00563394
0.00568221
0.00573211
0.00578308
0.00583479
0.00588784
0.0059426
0.00501168
0.0050474
0.0050473
0.00509611
0.0051428
0.00518911
0.00523569
0.00528284
0.00533049
0.00537904
0.00542916
0.00548089
0.00553367
0.00558794
0.00564446
0.00570192
0.00576008
0.00581995
0.00588148
0.00485718
0.00489481
0.00489693
0.00494977
0.00500091
0.00505224
0.00510379
0.0051559
0.00520901
0.00526287
0.0053186
0.00537612
0.00543497
0.00549557
0.00555829
0.00562214
0.00568661
0.00575263
0.00582032
0.00470343
0.00474367
0.00479555
0.00485026
0.00486028
0.00491688
0.00497348
0.00503076
0.00508923
0.00514885
0.00521042
0.00527402
0.00533956
0.0054062
0.00547447
0.00554445
0.00561527
0.00568696
0.00575967
0.00455659
0.00460162
0.00465299
0.00470849
0.00472422
0.00478507
0.00484682
0.00490996
0.00497433
0.00503991
0.00510693
0.00517646
0.00524836
0.00532079
0.00539418
0.00546954
0.00554631
0.00562302
0.00569979
0.00441975
0.00446319
0.00451377
0.00452946
0.00459509
0.00466061
0.00472836
0.0047976
0.00486754
0.00493864
0.00501103
0.00508583
0.00516267
0.00524019
0.00531837
0.00539792
0.00547898
0.00555994
0.00564017
0.0042945
0.00433646
0.0043903
0.00444929
0.00451528
0.00455073
0.00462379
0.00469748
0.00477211
0.00484758
0.00492456
0.00500307
0.00508299
0.00516448
0.00524673
0.0053294
0.00541313
0.00549733
0.00558085
0.00414885
0.00423186
0.00428472
0.00434755
0.00441658
0.00445916
0.00453502
0.00461195
0.00468983
0.0047681
0.00484733
0.00492788
0.0050101
0.0050942
0.00517896
0.00526391
0.00534941
0.0054359
0.00552253
0.00410901
0.00414871
0.00420605
0.00426809
0.00433762
0.00438663
0.00446387
0.00454163
0.00462053
0.0047
0.00478005
0.00486127
0.00494465
0.00502975
0.00511552
0.00520168
0.00528834
0.00537611
0.00546481
0.0040476
0.00408966
0.00414896
0.00421264
0.00428073
0.00433191
0.00440842
0.00448575
0.00456372
0.00464278
0.00472284
0.00480364
0.00488624
0.00497112
0.00505706
0.00514342
0.00523043
0.00531829
0.00540736
0.00401155
0.00405008
0.00410703
0.00417411
0.00424368
0.00429431
0.0043674
0.00444323
0.00451993
0.00459677
0.00467502
0.00475434
0.00483502
0.00491835
0.00500329
0.00508879
0.00517513
0.00526234
0.00535055
0.00399427
0.00403501
0.0040874
0.00413536
0.00420411
0.00427154
0.00434042
0.00441264
0.00448704
0.00456121
0.00463609
0.00471278
0.00479094
0.00487122
0.00495397
0.00503793
0.00512245
0.00520809
0.00529467
0.00635438
0.00635628
0.00635852
0.00631611
0.00631938
0.00632296
0.00632641
0.00633041
0.00633399
0.00633671
0.00634001
0.00634354
0.00634738
0.00635195
0.00635596
0.00635875
0.00636191
0.0063652
0.00636913
0.00611601
0.00612465
0.00617954
0.00618748
0.00615368
0.00616433
0.00617448
0.00618506
0.0061957
0.00620586
0.00621632
0.00622715
0.00623883
0.00625129
0.0062629
0.00627406
0.00628566
0.00629725
0.0063091
0.00597754
0.00598997
0.0060036
0.00601826
0.0059916
0.00600868
0.00602565
0.00604261
0.00605969
0.00607714
0.00609488
0.00611288
0.00613186
0.00615127
0.00617039
0.00618984
0.00620932
0.00622893
0.00624868
0.00579685
0.0058133
0.00583236
0.00585326
0.00583317
0.00585675
0.00588017
0.00590327
0.0059261
0.00595008
0.00597476
0.00599968
0.00602552
0.00605154
0.00607794
0.0061048
0.00613185
0.00615945
0.00618712
0.00561849
0.00563947
0.00566503
0.00569209
0.00567855
0.00570814
0.00573701
0.00576584
0.00579459
0.00582444
0.00585571
0.00588734
0.0059192
0.00595214
0.00598623
0.00602031
0.00605496
0.00609038
0.00612562
0.00544155
0.00546773
0.00550012
0.00553376
0.00552685
0.00556189
0.00559622
0.00563053
0.00566532
0.00570101
0.00573839
0.00577637
0.00581441
0.00585418
0.00589531
0.00593658
0.00597874
0.0060216
0.00606405
0.00527165
0.00530132
0.00533745
0.00537739
0.00537671
0.00541697
0.00545694
0.0054969
0.00553738
0.0055789
0.00562204
0.00566612
0.00571078
0.00575726
0.00580495
0.00585311
0.00590257
0.00595271
0.00600257
0.00510136
0.00513518
0.00517679
0.00522309
0.00522721
0.00527306
0.00531845
0.00536406
0.00541006
0.00545725
0.00550616
0.00555605
0.00560709
0.0056603
0.00571467
0.00576977
0.00582674
0.00588436
0.0059414
0.00493457
0.00497277
0.00501949
0.00507042
0.00507892
0.00513
0.00518052
0.00523139
0.00528293
0.00533579
0.00539053
0.00544625
0.00550359
0.00556366
0.00562492
0.00568704
0.0057514
0.00581631
0.00588044
0.00477009
0.00481077
0.00486203
0.00491765
0.00497068
0.00502472
0.00504265
0.00509865
0.0051557
0.00521435
0.00527532
0.00533732
0.0054013
0.00546854
0.00553688