/*--------------------------------*- C++ -*----------------------------------*\
| =========                 |                                                 |
| \\      /  F ield         | foam-extend: Open Source CFD                    |
|  \\    /   O peration     | Version:     3.1                                |
|   \\  /    A nd           | Web:         http://www.extend-project.de       |
|    \\/     M anipulation  |                                                 |
\*---------------------------------------------------------------------------*/
FoamFile
{
    version     2.0;
    format      ascii;
    class       volScalarField;
    location    "172800";
    object      Y;
}
// * * * * * * * * * * * * * * * * * * * * * * * * * * * * * * * * * * * * * //

dimensions      [0 1 0 0 0 0 0];

internalField   nonuniform List<scalar> 
21211
(
0.00558776
0.00569891
0.00581005
0.00592121
0.00603245
0.00614386
0.00625562
0.00636824
0.00648424
0.00558776
0.00569893
0.00581011
0.00592137
0.00603279
0.0061446
0.00625729
0.00637221
0.00649235
0.00558776
0.00569891
0.00581005
0.00592122
0.00603247
0.00614389
0.0062557
0.00636846
0.0064848
0.00558776
0.00569893
0.00581012
0.00592139
0.00603284
0.00614469
0.0062575
0.00637272
0.00649373
0.00558776
0.00569891
0.00581005
0.00592123
0.00603249
0.00614392
0.00625578
0.00636861
0.00648511
0.00558776
0.00569894
0.00581013
0.00592141
0.00603288
0.00614477
0.00625768
0.00637306
0.00649446
0.00558776
0.00569891
0.00581006
0.00592124
0.0060325
0.00614395
0.00625585
0.00636883
0.00648564
0.00558776
0.00569894
0.00581014
0.00592142
0.00603291
0.00614484
0.00625783
0.00637345
0.00649549
0.00558776
0.00569891
0.00581006
0.00592125
0.00603253
0.00614401
0.00625597
0.00636908
0.00648626
0.00558777
0.00569895
0.00581015
0.00592145
0.00603296
0.00614495
0.00625809
0.00637403
0.00649671
0.00558777
0.00569891
0.00581007
0.00592126
0.00603254
0.00614403
0.00625603
0.00636929
0.00648663
0.00558777
0.00569895
0.00581016
0.00592147
0.00603301
0.00614505
0.00625831
0.00637457
0.00649807
0.00558776
0.00569892
0.00581007
0.00592127
0.00603257
0.00614412
0.00625622
0.00636964
0.00648754
0.00558778
0.00569896
0.00581018
0.0059215
0.00603307
0.00614519
0.00625863
0.00637525
0.00649954
0.00558777
0.00569892
0.00581008
0.00592128
0.00603259
0.00614415
0.00625628
0.00636986
0.00648783
0.00558778
0.00569897
0.00581019
0.00592153
0.00603312
0.0061453
0.00625886
0.00637577
0.00650054
0.00558777
0.00569892
0.00581008
0.0059213
0.00603263
0.00614424
0.00625646
0.00637015
0.00648856
0.00558779
0.00569897
0.00581021
0.00592157
0.00603321
0.00614548
0.00625924
0.00637656
0.0065022
0.00558778
0.00569893
0.00581009
0.00592132
0.00603267
0.0061443
0.00625663
0.0063707
0.0064897
0.00558779
0.00569898
0.00581022
0.0059216
0.00603329
0.00614564
0.00625958
0.0063773
0.0065035
0.00558776
0.00569893
0.00581011
0.00592135
0.00603274
0.00614451
0.00628775
0.00637094
0.00649044
0.00558779
0.00569899
0.00581026
0.00592168
0.00603344
0.00614597
0.00625994
0.00637816
0.00650553
0.00558777
0.00569894
0.00581012
0.00592137
0.00603278
0.00614454
0.00625716
0.00637218
0.00649201
0.00558778
0.005699
0.00581028
0.00592171
0.00603349
0.00614606
0.00626054
0.00637941
0.0065079
0.00558776
0.00569894
0.00581014
0.00592142
0.00603288
0.00614473
0.00625749
0.00637224
0.00649279
0.00558778
0.00569901
0.00581031
0.00592179
0.00603366
0.00614641
0.00626122
0.00638063
0.00651001
0.00558777
0.00569895
0.00581016
0.00592145
0.00603294
0.00614486
0.00625772
0.00637272
0.00649388
0.00558778
0.00569903
0.00581035
0.00592187
0.00603382
0.00614672
0.00626174
0.00638152
0.00651148
0.00558777
0.00569896
0.00581017
0.00592148
0.006033
0.00614497
0.0062579
0.00637302
0.00649434
0.00558778
0.00569905
0.00581039
0.00592194
0.00603397
0.00614699
0.0062622
0.00638232
0.00651286
0.00558777
0.00569897
0.00581019
0.00592153
0.00603308
0.00614511
0.00625817
0.00637354
0.00649551
0.00558779
0.00569906
0.00581043
0.00592202
0.0060341
0.00614724
0.00626266
0.00638315
0.00651435
0.00558777
0.00569897
0.00581021
0.00592156
0.00603314
0.00614521
0.00625833
0.00637381
0.00649626
0.00558779
0.00569908
0.00581046
0.00592209
0.00603422
0.00614745
0.00626302
0.00638369
0.00651459
0.00558777
0.00569898
0.00581022
0.00592158
0.00603318
0.00614529
0.00625845
0.00637398
0.00649635
0.00558779
0.00569909
0.00581049
0.00592213
0.0060343
0.00614758
0.00626322
0.00638398
0.0065149
0.00558777
0.00569898
0.00581023
0.00592159
0.00603319
0.00614529
0.00625841
0.00637379
0.00649571
0.00558779
0.00569909
0.0058105
0.00592216
0.00603434
0.00614763
0.00626328
0.00638394
0.00651442
0.00558776
0.00569891
0.00581005
0.00592121
0.00603244
0.00614384
0.00625556
0.00636811
0.00648392
0.00558776
0.00569891
0.00581005
0.00592121
0.00606045
0.0061438
0.00625555
0.00639861
0.00651895
0.00561555
0.00572652
0.00581
0.0059212
0.00603241
0.00617232
0.00628432
0.00636793
0.00648338
0.00558776
0.0056989
0.00581006
0.0059212
0.00603242
0.00614376
0.00625544
0.0063677
0.00648268
0.00558777
0.0056989
0.00581003
0.00592119
0.0060324
0.00614373
0.0062553
0.00636737
0.00648178
0.00558777
0.0056989
0.00581004
0.0059212
0.0060324
0.00614372
0.00625529
0.00636736
0.00648172
0.00558777
0.0056989
0.00581004
0.0059212
0.0060324
0.00614372
0.00625528
0.00636732
0.00648145
0.00558777
0.00569891
0.00581004
0.0059212
0.0060324
0.00614371
0.00625525
0.00636718
0.00648103
0.00558777
0.0056989
0.00581004
0.0059212
0.00603241
0.00614374
0.00625531
0.00636732
0.00648125
0.00558778
0.00569891
0.00581005
0.00592121
0.00603243
0.00614377
0.00625536
0.00636741
0.00648141
0.00558777
0.00569891
0.00581005
0.00592123
0.00603247
0.00614386
0.00625557
0.00636786
0.00648228
0.00558778
0.00569892
0.00581006
0.00592125
0.00603251
0.00614394
0.00625571
0.00636819
0.00648305
0.00558777
0.00569892
0.00581007
0.00592127
0.00603256
0.00614405
0.00625592
0.00636855
0.00648341
0.00558778
0.00569892
0.00581008
0.00592129
0.00603259
0.00614408
0.00625596
0.00636858
0.0064834
0.00558778
0.00569893
0.00581009
0.00592131
0.00603262
0.00614414
0.00625606
0.00636877
0.00648377
0.00558778
0.00569893
0.00581011
0.00592133
0.00603266
0.00614421
0.00625619
0.00636902
0.00648425
0.00558778
0.00569894
0.00581011
0.00592135
0.00603269
0.00614426
0.00625627
0.00636914
0.00648426
0.00558778
0.00569894
0.00581012
0.00592136
0.00603272
0.00614432
0.00625637
0.00636931
0.00648466
0.00558778
0.00569894
0.00581012
0.00592137
0.00603272
0.00614431
0.00625632
0.00636915
0.00648421
0.00558776
0.00569893
0.00581011
0.00592135
0.00603276
0.00614456
0.00625719
0.00637195
0.00649177
0.00558777
0.00569894
0.00581012
0.00592135
0.00603274
0.00614451
0.0062571
0.00637156
0.00649049
0.00558776
0.00569889
0.00581007
0.00592135
0.00603276
0.00614446
0.00625691
0.0063713
0.00648987
0.00558777
0.0056989
0.00581005
0.00592132
0.00603273
0.00614441
0.00625676
0.00637094
0.00648899
0.00558777
0.00569892
0.00581009
0.00592132
0.00603267
0.00614431
0.00625659
0.00637046
0.00648756
0.00558777
0.00569892
0.0058101
0.00592132
0.00603267
0.00614428
0.00625653
0.00637033
0.00648754
0.00558778
0.00569893
0.0058101
0.00592132
0.00603266
0.00614426
0.00625647
0.00637023
0.00648703
0.00558778
0.00569893
0.0058101
0.00592132
0.00603266
0.00614425
0.00625643
0.00637
0.00648615
0.00558778
0.00569893
0.0058101
0.00592133
0.00603268
0.00614429
0.00625651
0.00637024
0.00648659
0.00558778
0.00569894
0.00581011
0.00592135
0.00603273
0.00614439
0.00625673
0.00637062
0.00648718
0.00558778
0.00569894
0.00581013
0.00592138
0.00603279
0.00614453
0.00625705
0.0063714
0.00648886
0.00558778
0.00569895
0.00581015
0.00592142
0.00603287
0.00614471
0.00625742
0.00637215
0.00649053
0.00558778
0.00569896
0.00581016
0.00592146
0.00603296
0.00614487
0.0062577
0.00637259
0.00649108
0.00558778
0.00569896
0.00581018
0.0059215
0.00603302
0.00614498
0.00625787
0.00637274
0.00649107
0.00558778
0.00569897
0.00581021
0.00592154
0.0060331
0.00614512
0.00625809
0.00637313
0.00649187
0.00558778
0.00569898
0.00581023
0.00592159
0.00603319
0.00614527
0.00625837
0.00637363
0.00649283
0.00558778
0.00569899
0.00581025
0.00592163
0.00603326
0.0061454
0.0062586
0.00637397
0.00649312
0.00558778
0.005699
0.00581027
0.00592166
0.00603331
0.00614548
0.00625872
0.00637417
0.0064932
0.00558779
0.005699
0.00581028
0.00592167
0.00603332
0.00614549
0.0062587
0.00637403
0.00649277
0.00796618
0.00797879
0.00799081
0.00800205
0.00801182
0.00802005
0.00802608
0.00802953
0.00803051
0.0080292
0.00802589
0.00802078
0.00801341
0.00800367
0.00799199
0.00797837
0.00796302
0.00794622
0.00792741
0.00805613
0.00806714
0.0080776
0.00808757
0.00809582
0.00810236
0.00810686
0.00810925
0.0081095
0.0081078
0.00810429
0.00809928
0.00809292
0.00808474
0.00807442
0.00806194
0.00804748
0.00803176
0.00801499
0.00799497
0.00800678
0.00801758
0.0080277
0.00803651
0.00804348
0.00804831
0.0080506
0.00805055
0.00804844
0.00804438
0.00803855
0.00803099
0.00802161
0.00801038
0.00799786
0.00798402
0.00796799
0.00794949
0.0080817
0.00809197
0.00810102
0.0081099
0.0081178
0.00812367
0.00812729
0.00812869
0.00812822
0.00812583
0.00812131
0.00811526
0.00810843
0.0081007
0.00809138
0.00807993
0.0080665
0.00805132
0.00803453
0.00802047
0.00803166
0.00804148
0.00805004
0.00805765
0.00806387
0.00806799
0.00806949
0.00806862
0.00806572
0.00806092
0.00805455
0.0080468
0.00803777
0.00802735
0.00801555
0.00800226
0.00798693
0.00796925
0.00810423
0.00811399
0.00812232
0.00812974
0.00813683
0.00814271
0.00814632
0.00814727
0.00814598
0.00814271
0.00813734
0.00813034
0.0081228
0.00811502
0.00810614
0.00809558
0.00808316
0.00806868
0.00805231
0.00804293
0.00805298
0.0080623
0.0080701
0.00807667
0.00808231
0.00808599
0.00808685
0.00808522
0.00808148
0.00807585
0.00806888
0.00806086
0.00805192
0.00804229
0.00803123
0.00801789
0.00800292
0.00798641
0.00812385
0.00813303
0.00814116
0.00814815
0.00815451
0.00815981
0.00816335
0.00816432
0.00816243
0.008158
0.0081518
0.00814448
0.00813652
0.00812818
0.00811898
0.00810871
0.00809699
0.00808332
0.00806793
0.00806267
0.00807149
0.0080801
0.00808787
0.00809393
0.0080989
0.00810227
0.00810262
0.00810024
0.00809563
0.0080891
0.00808151
0.00807339
0.00806467
0.0080549
0.00804381
0.0080311
0.00801647
0.00800061
0.00814148
0.00815003
0.0081577
0.00816475
0.00817107
0.00817544
0.00817801
0.00817865
0.00817651
0.00817157
0.0081649
0.00815749
0.00814919
0.00814014
0.00813007
0.00811937
0.00810812
0.00809516
0.00808072
0.00808057
0.00808834
0.00809581
0.00810299
0.00810883
0.00811319
0.00811578
0.00811567
0.00811293
0.00810772
0.00810048
0.00809236
0.00808416
0.00807558
0.00806547
0.00805383
0.00804125
0.00802724
0.00801196
0.00815836
0.00816598
0.00817286
0.00817901
0.00818479
0.00818899
0.00819042
0.00818969
0.00818719
0.00818248
0.00817607
0.00816832
0.00815969
0.00815035
0.00813971
0.00812847
0.00811692
0.00810424
0.00809056
0.00809658
0.00810347
0.00810977
0.00811561
0.00812055
0.00812437
0.00812625
0.00812537
0.00812243
0.00811706
0.00810964
0.00810157
0.00809309
0.00808401
0.00807403
0.00806226
0.00804919
0.00803544
0.00802069
0.00817381
0.00818025
0.00818606
0.00819083
0.00819522
0.00819923
0.00820042
0.00819828
0.0081949
0.00819028
0.00818418
0.00817664
0.008168
0.0081585
0.00814796
0.00813646
0.0081242
0.00811127
0.00809795
0.00811036
0.00811652
0.0081218
0.0081263
0.00812976
0.00813226
0.00813346
0.00813215
0.00812857
0.00812318
0.00811656
0.00810904
0.00810032
0.00809083
0.00808073
0.00806899
0.00805591
0.00804199
0.00802742
0.00818676
0.00819204
0.00819683
0.00820086
0.00820356
0.00820567
0.00820688
0.00820517
0.00820084
0.00819544
0.00818947
0.00818251
0.00817428
0.00816488
0.00815459
0.00814319
0.00813065
0.00811743
0.00810413
0.00812187
0.00812712
0.00813139
0.0081349
0.00813721
0.00813787
0.00813761
0.00813621
0.00813257
0.00812743
0.00812159
0.00811437
0.00810575
0.0080963
0.00808593
0.00807413
0.00806118
0.00804739
0.00803319
0.00819711
0.00820142
0.00820541
0.00820899
0.00821057
0.00821023
0.00821005
0.00820918
0.00820545
0.00819957
0.0081933
0.00818657
0.008179
0.00817003
0.00815962
0.00814822
0.00813604
0.0081231
0.00810969
0.00813103
0.00813525
0.00813851
0.00814097
0.00814223
0.00814171
0.00814013
0.00813815
0.00813524
0.00813056
0.0081246
0.00811766
0.00810933
0.00809991
0.00808954
0.00807792
0.00806529
0.00805191
0.00803777
0.00820527
0.00820864
0.0082116
0.00821428
0.0082154
0.00821405
0.00821204
0.00821032
0.00820777
0.00820311
0.00819668
0.00818951
0.00818198
0.00817352
0.00816333
0.00815204
0.00814025
0.00812754
0.00811387
0.00813785
0.00814125
0.00814367
0.00814502
0.00814513
0.00814393
0.00814201
0.00813981
0.00813674
0.00813209
0.00812636
0.0081195
0.00811125
0.00810181
0.00809162
0.0080804
0.0080681
0.00805476
0.00804009
0.00821132
0.00821389
0.008216
0.00821768
0.00821783
0.00821623
0.00821408
0.00821135
0.00820827
0.00820464
0.0081992
0.00819167
0.00818358
0.00817528
0.00816571
0.00815474
0.00814287
0.00812994
0.00811592
0.00814239
0.00814518
0.00814696
0.00814747
0.00814675
0.00814522
0.00814345
0.00814139
0.0081379
0.00813294
0.00812743
0.00812073
0.00811246
0.00810298
0.00809282
0.0080816
0.00806916
0.00805532
0.00803988
0.00821526
0.00821732
0.00821882
0.00821959
0.00821889
0.00821731
0.00821555
0.00821285
0.00820886
0.00820453
0.00819995
0.00819321
0.00818493
0.00817626
0.00816667
0.00815581
0.00814377
0.00813045
0.00811608
0.00814497
0.00814726
0.00814846
0.00814848
0.00814762
0.00814622
0.00814431
0.00814185
0.00813855
0.00813382
0.00812811
0.0081217
0.00811352
0.00810386
0.00809333
0.00808152
0.00806842
0.00805371
0.00803725
0.00821765
0.00821939
0.00822045
0.00822049
0.00821948
0.00821783
0.00821567
0.00821315
0.00820955
0.00820462
0.0081996
0.00819377
0.00818629
0.00817737
0.00816697
0.00815569
0.00814349
0.00812965
0.00811444
0.00814599
0.00814795
0.00814878
0.00814872
0.00814809
0.00814677
0.0081446
0.00814176
0.00813831
0.00813401
0.00812835
0.00812173
0.00811373
0.00810401
0.00809292
0.00808019
0.00806614
0.00805051
0.00803274
0.00821877
0.00822038
0.00822129
0.00822083
0.00821929
0.00821733
0.00821506
0.00821261
0.00820947
0.00820481
0.00819935
0.00819343
0.00818644
0.008178
0.00816711
0.00815466
0.00814193
0.00812767
0.00811124
0.0081451
0.00814723
0.00814847
0.00814868
0.00814786
0.00814649
0.00814452
0.00814158
0.00813783
0.00813343
0.0081278
0.00812101
0.00811303
0.0081033
0.00809174
0.00807789
0.00806248
0.00804572
0.00802653
0.0082184
0.00822021
0.00822142
0.00822111
0.00821875
0.00821635
0.00821449
0.00821208
0.00820881
0.00820455
0.00819929
0.00819286
0.00818554
0.0081773
0.0081666
0.00815313
0.00813902
0.00812412
0.00810667
0.00814262
0.00814566
0.00814798
0.00814842
0.00814673
0.00814528
0.00814383
0.00814108
0.00813719
0.00813248
0.00812687
0.00812002
0.00811162
0.00810149
0.00808939
0.00807484
0.00805786
0.00803909
0.00801841
0.00821676
0.00821894
0.0082205
0.00822115
0.00821944
0.00821639
0.00821382
0.00821137
0.00820799
0.00820391
0.00819887
0.00819231
0.00818467
0.0081756
0.00816444
0.00815094
0.00813544
0.00811881
0.00810039
0.00813942
0.00814363
0.00814671
0.00814761
0.00814597
0.00814411
0.00814276
0.00814045
0.00813644
0.0081315
0.00812591
0.00811905
0.00810992
0.0080985
0.00808531
0.00807009
0.00805203
0.0080314
0.00800915
0.00821387
0.00821682
0.00821858
0.00821967
0.00821993
0.00821769
0.00821392
0.00821087
0.0082074
0.00820309
0.00819806
0.00819151
0.00818359
0.00817364
0.00816119
0.0081471
0.00813088
0.00811227
0.00809214
0.00813554
0.00814012
0.00814348
0.00814526
0.00814512
0.00814372
0.00814203
0.0081396
0.00813556
0.00813046
0.00812464
0.0081174
0.00810751
0.00809491
0.00808004
0.00806314
0.00804407
0.00802226
0.00799891
0.00820989
0.0082138
0.00821606
0.00821763
0.00821884
0.00821828
0.0082152
0.00821113
0.00820692
0.00820237
0.00819698
0.00819006
0.00818155
0.00817091
0.00815719
0.00814152
0.00812449
0.00810487
0.00808304
0.00813015
0.00813468
0.00813877
0.00814159
0.00814262
0.00814229
0.00814074
0.00813813
0.00813418
0.00812899
0.00812261
0.00811413
0.00810308
0.00808954
0.00807333
0.00805471
0.00803401
0.00801171
0.00798769
0.00820507
0.00820946
0.00821259
0.00821504
0.00821633
0.00821635
0.00821473
0.00821077
0.00820617
0.00820146
0.00819546
0.00818774
0.00817812
0.00816636
0.00815156
0.00813451
0.00811619
0.00809599
0.00807335
0.00663614
0.00670678
0.00681438
0.00695241
0.00705089
0.00714468
0.00723296
0.00731553
0.00739402
0.00746823
0.00753717
0.00760197
0.0076632
0.00771942
0.00777112
0.00782022
0.00786568
0.0079062
0.00794282
0.00661509
0.00672164
0.00683276
0.0069418
0.00704633
0.00719185
0.00728559
0.00737421
0.00745844
0.0075362
0.00760949
0.00767829
0.0077417
0.00780119
0.00785578
0.00790501
0.00795073
0.00799331
0.00803209
0.00664023
0.00671503
0.00682845
0.00693621
0.00703932
0.00718073
0.00727485
0.00736186
0.00744285
0.00751823
0.00758751
0.00765197
0.00771152
0.00776503
0.00781464
0.00786058
0.00790161
0.00793854
0.00797271
0.00664406
0.00673139
0.00684916
0.00696473
0.00707613
0.00718138
0.00728005
0.00742155
0.00750776
0.00758713
0.00766051
0.00772746
0.00778909
0.00784646
0.00789752
0.0079432
0.00798564
0.00802458
0.0080596
0.00664365
0.00672094
0.00683959
0.006955
0.00706672
0.00721659
0.00731608
0.00740709
0.00749048
0.00756742
0.00763733
0.00770059
0.00775797
0.00780907
0.00785596
0.00789815
0.00793525
0.00796919
0.00800034
0.00664785
0.00673947
0.00686262
0.00698475
0.00710333
0.00721617
0.00732113
0.00746752
0.00755517
0.00763573
0.00770928
0.00777528
0.00783565
0.00789017
0.00793756
0.00798013
0.00801907
0.00805386
0.00808475
0.00664876
0.00672914
0.00685404
0.00697623
0.00709428
0.00720536
0.00730875
0.00744834
0.00753415
0.00761279
0.00768357
0.00774615
0.00780169
0.00785086
0.00789504
0.00793346
0.00796728
0.00799819
0.00802558
0.00662446
0.00674702
0.00687659
0.00700595
0.0071315
0.00725012
0.00735986
0.00751024
0.00760044
0.0076823
0.0077557
0.00782097
0.00787958
0.00793075
0.00797505
0.00801496
0.0080504
0.00808085
0.00810721
0.0066543
0.00674049
0.00687162
0.00699873
0.00712052
0.00723506
0.00734334
0.00748672
0.00757478
0.00765408
0.00772468
0.00778722
0.00784186
0.00788951
0.00793078
0.00796601
0.00799715
0.00802453
0.00804791
0.00662795
0.00675657
0.00689426
0.00703022
0.00716022
0.00728208
0.00739526
0.00749907
0.00759247
0.00772536
0.00779867
0.00786305
0.00791958
0.00796786
0.00801011
0.00804729
0.00807873
0.00810475
0.00812712
0.00665923
0.00674988
0.00688781
0.00701992
0.00714739
0.00726535
0.00737606
0.00752351
0.00761358
0.00769306
0.0077629
0.00782474
0.0078783
0.00792436
0.00796344
0.00799619
0.00802424
0.00804782
0.00806777
0.00663154
0.00676513
0.00690897
0.00705063
0.00718551
0.00731231
0.00742933
0.00753576
0.00763105
0.00776377
0.00783777
0.00790152
0.00795589
0.00800177
0.00804208
0.00807608
0.00810356
0.00812607
0.00814568
0.0066643
0.00675917
0.00689998
0.00703679
0.0071694
0.00729223
0.00740707
0.00751123
0.00760479
0.00772908
0.00779868
0.00785939
0.00791139
0.00795525
0.00799223
0.00802276
0.00804768
0.00806816
0.00808551
0.00663536
0.0067738
0.0069225
0.00706998
0.00720928
0.0073402
0.00746106
0.00756953
0.0076661
0.00779826
0.0078724
0.00793553
0.00798819
0.00803222
0.00807022
0.00810085
0.00812503
0.00814523
0.00816278
0.00662371
0.00676636
0.00691583
0.00705488
0.00719463
0.00732289
0.00743955
0.00754349
0.00763823
0.00776213
0.007831
0.0078906
0.00794074
0.00798246
0.00801696
0.00804517
0.00806783
0.00808607
0.00810096
0.00663901
0.00678393
0.00694042
0.0070919
0.00723434
0.00736935
0.00749348
0.00760347
0.00769998
0.00783137
0.00790363
0.00796486
0.00801622
0.00805877
0.00809416
0.00812179
0.00814364
0.00816232
0.00817777
0.00662717
0.00677498
0.00692895
0.0070756
0.0072212
0.00735462
0.00747077
0.00757358
0.0076695
0.00779173
0.00785901
0.00791694
0.00796557
0.00800534
0.00803758
0.00806407
0.0080851
0.00810143
0.008114
0.00664321
0.00679411
0.00695591
0.00711292
0.00726034
0.00739732
0.00752219
0.00763416
0.0077318
0.00786174
0.00793207
0.00799074
0.00804045
0.00808126
0.00811432
0.00813998
0.00816041
0.00817736
0.00819015
0.0066329
0.00678771
0.0069475
0.00709595
0.00724115
0.00737642
0.00749477
0.00760078
0.00769658
0.00781654
0.00788206
0.00793781
0.00798545
0.00802351
0.00805402
0.00807977
0.0080998
0.00811434
0.00812478
0.00664499
0.00680048
0.00696854
0.00713134
0.00728454
0.0074237
0.00754899
0.00766114
0.00775901
0.00784364
0.00791532
0.00801211
0.0080602
0.00809948
0.0081308
0.00815544
0.00817503
0.00818982
0.00819992
0.00663547
0.00679326
0.0069597
0.00711825
0.00726185
0.0073977
0.00752268
0.0076289
0.00772066
0.00783732
0.00790103
0.00795439
0.00800058
0.00803761
0.00806719
0.00809211
0.00811102
0.00812412
0.00813295
0.00664918
0.00680807
0.00698146
0.00714819
0.00730312
0.00744418
0.00757493
0.00768707
0.00778329
0.00786609
0.00793551
0.00802864
0.00807492
0.00811302
0.00814338
0.00816746
0.00818617
0.00819906
0.0082072
0.00663951
0.00680091
0.00697025
0.00713274
0.00728487
0.00742286
0.00754557
0.00764901
0.00773989
0.00785348
0.00791536
0.00796713
0.00801107
0.00804707
0.00807636
0.00810041
0.00811816
0.00813029
0.00813826
0.00665455
0.00682029
0.00699594
0.00716634
0.00732492
0.00746862
0.00759636
0.00770719
0.00780285
0.00788347
0.00795074
0.00804076
0.00808492
0.0081218
0.00815177
0.00817539
0.0081932
0.00820478
0.00821177
0.00663965
0.00680389
0.00697811
0.00714601
0.00729694
0.0074372
0.00756271
0.00766431
0.00775556
0.00786394
0.00792326
0.0079741
0.00801672
0.00805168
0.0080806
0.00810445
0.00812191
0.00813364
0.00814127
0.00665613
0.00682272
0.00700154
0.00717676
0.00733818
0.00748301
0.00761114
0.00772299
0.00781711
0.00789563
0.00796052
0.00804715
0.00808992
0.00812571
0.00815547
0.00817888
0.00819641
0.00820793
0.00821457
0.00664533
0.0068155
0.00698452
0.0071558
0.00731305
0.00745456
0.00757466
0.00767691
0.00776503
0.00786765
0.00792555
0.00797532
0.00801751
0.00805201
0.00808031
0.00810427
0.00812214
0.00813419
0.00814224
0.00665985
0.00682717
0.00700733
0.00718602
0.00734985
0.00749614
0.00762397
0.00773262
0.00782416
0.00790107
0.00796454
0.00804853
0.00809082
0.0081256
0.00815505
0.00817866
0.00819642
0.00820863
0.0082158
0.00664422
0.00681436
0.00699279
0.00715965
0.00731247
0.00745466
0.00757532
0.00767732
0.00776499
0.00786524
0.00792323
0.00797258
0.00801459
0.00804901
0.00807685
0.00810046
0.00811892
0.00813184
0.0081408
0.00666295
0.00683256
0.00701322
0.00718855
0.00735207
0.00749897
0.0076263
0.00773309
0.00782413
0.00790055
0.00796348
0.00804561
0.00808821
0.00812276
0.00815192
0.0081759
0.00819383
0.00820652
0.00821471
0.00663991
0.00680872
0.00698822
0.00715722
0.00731517
0.00744939
0.00756589
0.00766855
0.0077564
0.00785581
0.00791468
0.00796525
0.00800783
0.00804285
0.00807111
0.00809431
0.00811339
0.00812745
0.00813727
0.00666438
0.00683009
0.0070088
0.00718635
0.00734714
0.00748986
0.00761745
0.00772492
0.00781652
0.0078928
0.00795552
0.00803767
0.00808127
0.00811695
0.00814648
0.00817085
0.00818943
0.00820274
0.00821206
0.00664699
0.00681247
0.00698345
0.00715021
0.00730463
0.00743802
0.00755708
0.00765661
0.00774334
0.00784067
0.00790099
0.00795295
0.00799664
0.00803323
0.00806285
0.00808677
0.00810659
0.00812201
0.00813285
0.00666342
0.00682955
0.0070049
0.00717724
0.00733646
0.007479
0.00760421
0.00771218
0.00780261
0.00787782
0.0079422
0.00802556
0.00807046
0.0081079
0.00813854
0.00816361
0.00818359
0.00819797
0.00820824
0.00664467
0.00680406
0.00697184
0.00713717
0.00728281
0.0074158
0.00753743
0.00763588
0.00772077
0.00782075
0.00788409
0.00793725
0.0079826
0.00802096
0.00805224
0.0080778
0.00809849
0.00811538
0.00812809
0.00666329
0.00682262
0.0069941
0.00716262
0.00732046
0.00746058
0.00758394
0.0076918
0.00778213
0.00785903
0.00792569
0.00801031
0.00805711
0.00809631
0.00812862
0.00815458
0.00817573
0.00819175
0.00820313
0.00664225
0.00679545
0.00695871
0.00712017
0.00725971
0.00742475
0.00754118
0.00761039
0.00769468
0.0077996
0.0078653
0.00792002
0.00796738
0.00800721
0.00804035
0.00806742
0.00808943
0.00810736
0.00812228
0.0066614
0.00681525
0.00698299
0.00714648
0.00729872
0.00743529
0.00755705
0.00766621
0.007759
0.00787125
0.00793725
0.00799406
0.00804265
0.00808357
0.00811744
0.00814456
0.00816662
0.00818477
0.00819781
0.00663365
0.00670477
0.00681074
0.00694079
0.00703565
0.00712615
0.00721144
0.0072918
0.00736947
0.00744354
0.00751273
0.00757856
0.00764161
0.00769984
0.00775353
0.0078048
0.00785249
0.00789508
0.00793314
0.00663201
0.00673522
0.00684031
0.00694047
0.00703497
0.00712525
0.00721056
0.00729124
0.00736961
0.00744433
0.00751488
0.00758303
0.00764816
0.00770801
0.00776358
0.00781616
0.00786405
0.00790681
0.00794573
0.00663133
0.00673444
0.00683953
0.00693983
0.0070346
0.00712478
0.00721027
0.00729157
0.00737062
0.00744624
0.00751831
0.00758843
0.00765531
0.00771662
0.00777382
0.00782751
0.00787556
0.00791836
0.00795785
0.00660165
0.00670464
0.00683973
0.00693995
0.00703497
0.00712506
0.00721096
0.00729297
0.0073729
0.00745015
0.00752391
0.00759539
0.00766349
0.00772619
0.00778469
0.00783905
0.00788733
0.00793008
0.00796941
0.00660058
0.00670521
0.00684081
0.00694142
0.00703643
0.00712659
0.00721338
0.00729646
0.00737698
0.0074556
0.00753112
0.00760368
0.00767284
0.00773709
0.00779623
0.00785045
0.00789877
0.00794143
0.00798018
0.00660066
0.00670588
0.00684281
0.00694402
0.00703942
0.00713032
0.00721811
0.00730233
0.0073832
0.00746237
0.00753949
0.00761309
0.00768291
0.0077483
0.00780798
0.00786195
0.00790984
0.00795183
0.00798965
0.00660025
0.00670785
0.00684651
0.00694833
0.00704464
0.00713628
0.00722464
0.00730983
0.00739166
0.00747147
0.00754958
0.00762405
0.00769424
0.00775982
0.00781973
0.00787348
0.00792036
0.00796092
0.00799722
0.00660092
0.00671112
0.00685115
0.0069547
0.00705239
0.0071447
0.00723347
0.00731931
0.00740228
0.00748308
0.00756163
0.00763656
0.00770701
0.00777237
0.00783178
0.00788451
0.00792959
0.00796806
0.00800244
0.00660166
0.00671439
0.00685664
0.00696245
0.00706177
0.0071552
0.00724475
0.00733113
0.00741491
0.00749669
0.00757562
0.00765048
0.00772056
0.00778537
0.00784344
0.0078941
0.00793688
0.00797284
0.00800501
0.00660335
0.0067178
0.00686344
0.00697105
0.00707215
0.00716736
0.00725834
0.00734583
0.00743032
0.00751234
0.00759106
0.00766529
0.00773375
0.00779633
0.00785207
0.00790028
0.00794103
0.00797505
0.00800513
0.00660529
0.00672092
0.00683812
0.00694839
0.00708385
0.00718127
0.00727403
0.00736291
0.00744764
0.00752833
0.007605
0.00767727
0.00774313
0.00780212
0.00785461
0.00790078
0.00794069
0.00797422
0.00800303
0.00660817
0.00672612
0.00684408
0.00695654
0.00709565
0.00719515
0.00728881
0.00737786
0.00746183
0.00754018
0.00761364
0.0076824
0.00774513
0.00780123
0.00785102
0.00789548
0.0079352
0.00796943
0.00799848
0.00660738
0.00672701
0.00684756
0.00699572
0.00710414
0.00720463
0.0072981
0.00738564
0.00746741
0.00754356
0.00761446
0.0076799
0.00773962
0.00779378
0.0078424
0.00788602
0.00792556
0.00796069
0.00799078
0.00660855
0.00672796
0.00684967
0.00696612
0.00707509
0.00720655
0.00729896
0.00738425
0.00746367
0.00753797
0.00760707
0.00767042
0.00772817
0.00778086
0.0078293
0.00787328
0.00791284
0.00794863
0.00798014
0.00664251
0.006728
0.00684907
0.00696497
0.00707309
0.00719959
0.00729031
0.00737407
0.00745201
0.00752512
0.00759266
0.00765485
0.00771215
0.00776459
0.00781306
0.00785756
0.00789759
0.00793413
0.0079673
0.0066072
0.00672601
0.00684743
0.00695798
0.00706182
0.00718557
0.0072752
0.00735754
0.00743403
0.00750592
0.0075729
0.00763506
0.00769283
0.00774597
0.00779452
0.00783928
0.00788035
0.0079178
0.00795211
0.00660745
0.00671884
0.00683606
0.00694671
0.00704845
0.00716864
0.00725631
0.00733738
0.00741235
0.00748278
0.00754972
0.00761256
0.0076707
0.0077245
0.00777385
0.00781905
0.00786109
0.0078997
0.0079351
0.00660587
0.00671375
0.00682552
0.00693278
0.00703408
0.00715083
0.0072356
0.0073149
0.00738909
0.00745843
0.00752459
0.00758792
0.00764666
0.00770087
0.00775135
0.00779757
0.00784046
0.00788051
0.00791734
0.00660385
0.00671194
0.00681924
0.00694741
0.00704433
0.00713424
0.00721631
0.00729294
0.00736613
0.00743494
0.00750009
0.00756297
0.00762235
0.00767693
0.00772808
0.00777568
0.00781941
0.00786043
0.00789853
0.00661378
0.00671912
0.00682877
0.00697008
0.00707366
0.00717106
0.00726198
0.007349
0.00743181
0.00750915
0.00758348
0.00765419
0.0077197
0.00778159
0.00783903
0.00789055
0.00793795
0.00798214
0.00802319
0.00663419
0.00674759
0.00682895
0.00693541
0.00707209
0.00716849
0.0072593
0.00734675
0.00742971
0.00750835
0.00758476
0.00765705
0.00772458
0.00778887
0.00784803
0.00790081
0.0079489
0.00799345
0.00803456
0.00660967
0.00671637
0.00682733
0.00693469
0.00707089
0.00716642
0.00725734
0.00734541
0.00742914
0.00750906
0.0075873
0.00766148
0.00773091
0.00779688
0.00785746
0.00791122
0.00795987
0.00800501
0.00804621
0.00660848
0.00671657
0.00682646
0.00693328
0.00707014
0.00716586
0.00725717
0.00734575
0.00743091
0.00751239
0.00759173
0.00766763
0.00773855
0.00780532
0.00786692
0.00792143
0.00797039
0.0080157
0.00805666
0.0066067
0.0067169
0.00682665
0.00693343
0.00707099
0.00716727
0.00725919
0.00734788
0.00743435
0.00751794
0.00759829
0.00767544
0.00774737
0.0078147
0.00787713
0.0079321
0.00798104
0.00802589
0.00806586
0.00660681
0.00671725
0.00682843
0.00693554
0.00707346
0.0071705
0.00726339
0.00735288
0.0074401
0.00752525
0.00760679
0.00768439
0.0077572
0.00782544
0.00788812
0.00794299
0.0079916
0.00803554
0.00807391
0.00660561
0.00671871
0.00683152
0.00693884
0.0070772
0.00717534
0.00726965
0.00736066
0.00744873
0.00753455
0.00761686
0.0076948
0.00776839
0.00783708
0.00789946
0.00795371
0.00800135
0.00804364
0.00808
0.00660494
0.00672074
0.00683455
0.00694334
0.00708388
0.00718303
0.0072783
0.00737045
0.00745953
0.00754586
0.00762863
0.00770711
0.00778127
0.00784967
0.00791099
0.00796388
0.00800976
0.00804998
0.0080841
0.00660519
0.00672228
0.00683824
0.00695016
0.00709405
0.00719415
0.00728985
0.00738266
0.00747265
0.00755978
0.00764284
0.00772133
0.00779535
0.00786274
0.00792214
0.00797296
0.00801623
0.0080537
0.00808569
0.00660677
0.00672659
0.00684491
0.00695903
0.00706628
0.00716803
0.00730409
0.00739775
0.0074887
0.00757643
0.00765893
0.00773604
0.00780834
0.00787332