/*--------------------------------*- C++ -*----------------------------------*\
| =========                 |                                                 |
| \\      /  F ield         | foam-extend: Open Source CFD                    |
|  \\    /   O peration     | Version:     3.1                                |
|   \\  /    A nd           | Web:         http://www.extend-project.de       |
|    \\/     M anipulation  |                                                 |
\*---------------------------------------------------------------------------*/
FoamFile
{
    version     2.0;
    format      ascii;
    class       volScalarField;
    location    "172800";
    object      Z;
}
// * * * * * * * * * * * * * * * * * * * * * * * * * * * * * * * * * * * * * //

dimensions      [0 1 0 0 0 0 0];

internalField   nonuniform List<scalar> 
21211
(
0.00325519
0.00325518
0.00325518
0.00325517
0.00325513
0.0032551
0.00325499
0.00325484
0.00325736
0.00314216
0.00314217
0.00314217
0.00314215
0.00314216
0.00314219
0.00314222
0.00314257
0.00314673
0.00323693
0.00323693
0.00323692
0.00323692
0.00323691
0.00323686
0.00323676
0.00323666
0.00323879
0.00312564
0.00312564
0.00312564
0.00312565
0.00312567
0.0031257
0.00312575
0.00312616
0.00312969
0.00323025
0.00323025
0.00323024
0.00323023
0.00323022
0.00323018
0.00323007
0.00322999
0.00323184
0.00311976
0.00311976
0.00311977
0.00311977
0.0031198
0.00311984
0.0031199
0.00312031
0.00312354
0.00323462
0.00323462
0.00323462
0.00323461
0.00323459
0.00323455
0.00323443
0.00323424
0.00323595
0.00312468
0.00312468
0.00312468
0.00312468
0.00312471
0.00312475
0.00312483
0.0031252
0.00312831
0.0032517
0.00325169
0.00325169
0.00325168
0.00325165
0.00325161
0.0032515
0.00325141
0.00325296
0.00314434
0.00314434
0.00314435
0.00314436
0.00314439
0.00314444
0.00314453
0.00314495
0.00314768
0.00328417
0.00328417
0.00328417
0.00328416
0.00328418
0.00328413
0.00328402
0.00328402
0.00328518
0.00317927
0.00317926
0.00317927
0.00317928
0.0031793
0.00317936
0.00317946
0.0031799
0.00318233
0.00332192
0.00332191
0.00332191
0.0033219
0.0033219
0.0033218
0.00332168
0.00332161
0.00332308
0.00322172
0.00322172
0.00322173
0.00322174
0.00322177
0.00322182
0.00322192
0.00322236
0.0032252
0.0033777
0.0033777
0.0033777
0.00337769
0.00337767
0.00337765
0.00337754
0.00337755
0.00337891
0.00327969
0.00327969
0.00327969
0.0032797
0.00327973
0.00327978
0.00327989
0.0032804
0.00328346
0.00344107
0.00344107
0.00344104
0.00344102
0.003441
0.00344096
0.00344084
0.00344077
0.00344226
0.00334727
0.00334727
0.00334727
0.00334727
0.0033473
0.00334737
0.00334748
0.00334801
0.00335118
0.00351748
0.00351748
0.00351746
0.00351745
0.00351743
0.00351737
0.00351718
0.00351705
0.00351868
0.00342933
0.00342932
0.00342933
0.00342934
0.00342938
0.00342945
0.00342961
0.00343021
0.00343396
0.00361171
0.00361171
0.0036117
0.00361168
0.00361166
0.00361166
0.00362028
0.00361147
0.00361339
0.0035312
0.0035312
0.00353121
0.00353123
0.00353127
0.00353138
0.00353162
0.00353225
0.00353639
0.00372696
0.00372696
0.00372696
0.00372695
0.00372693
0.0037269
0.00372728
0.00372675
0.00372827
0.00365403
0.00365404
0.00365405
0.00365407
0.00365412
0.00365418
0.00365417
0.00365489
0.00365916
0.00386966
0.00386967
0.00386966
0.00386966
0.00386964
0.0038696
0.00386931
0.00386917
0.00387092
0.00380586
0.00380587
0.00380588
0.00380591
0.00380597
0.00380607
0.00380627
0.00380699
0.00381119
0.00403836
0.00403836
0.00403836
0.00403836
0.00403834
0.0040383
0.00403819
0.00403817
0.00404009
0.00398525
0.00398526
0.00398528
0.0039853
0.00398536
0.00398544
0.00398561
0.00398636
0.00399097
0.00423637
0.00423636
0.00423636
0.00423636
0.00423634
0.0042363
0.00423621
0.00423621
0.00423804
0.0041917
0.00419171
0.00419173
0.00419175
0.0041918
0.00419189
0.00419205
0.00419276
0.00419686
0.00445642
0.00445642
0.00445642
0.00445641
0.0044564
0.00445637
0.00445629
0.00445626
0.00445767
0.00442197
0.00442198
0.004422
0.00442202
0.00442207
0.00442214
0.00442226
0.00442277
0.00442576
0.00470009
0.00470008
0.00470008
0.00470008
0.00470007
0.00470003
0.00469995
0.00469986
0.00470069
0.00467485
0.00467485
0.00467486
0.00467488
0.00467492
0.00467497
0.00467503
0.0046753
0.00467705
0.00496307
0.00496307
0.00496307
0.00496307
0.00496306
0.00496303
0.00496296
0.00496287
0.00496353
0.00494688
0.00494688
0.00494689
0.0049469
0.00494692
0.00494694
0.00494696
0.00494708
0.00494811
0.00523891
0.0052389
0.0052389
0.0052389
0.00523889
0.00523887
0.00523883
0.00523874
0.00523892
0.00523138
0.00523139
0.00523139
0.00523139
0.0052314
0.00523141
0.0052314
0.00523141
0.00523191
0.00326928
0.00326927
0.00326927
0.00326925
0.00326922
0.0032692
0.00326911
0.00326906
0.00327154
0.00330116
0.00330116
0.0033012
0.0033012
0.00328141
0.00330098
0.00330099
0.00328132
0.00328926
0.00332391
0.00332366
0.00333748
0.00333755
0.00333776
0.00332361
0.00332335
0.00333739
0.00334124
0.00339421
0.00339422
0.0033936
0.0033934
0.00339341
0.00339399
0.00339411
0.00339344
0.0033976
0.00346128
0.00346129
0.00346136
0.00346138
0.00346137
0.00346127
0.00346115
0.0034612
0.00346512
0.00352843
0.00352842
0.0035284
0.0035284
0.0035284
0.00352836
0.00352826
0.00352821
0.0035317
0.00360115
0.00360115
0.00360114
0.00360115
0.00360114
0.0036011
0.00360101
0.00360098
0.0036048
0.00367998
0.00367997
0.00367997
0.00367997
0.00367997
0.00367994
0.00367984
0.00367985
0.00368372
0.00376346
0.00376346
0.00376346
0.00376345
0.00376343
0.0037634
0.00376332
0.0037633
0.00376718
0.00385892
0.00385892
0.00385892
0.00385892
0.00385894
0.00385892
0.00385884
0.00385888
0.00386254
0.00395853
0.00395853
0.00395853
0.00395853
0.00395852
0.00395847
0.0039584
0.0039584
0.00396143
0.00407541
0.00407541
0.00407541
0.00407541
0.0040754
0.00407537
0.0040753
0.00407529
0.00407803
0.00421005
0.00421005
0.00421005
0.00421005
0.00421004
0.00420999
0.00420989
0.00420985
0.004212
0.00436018
0.00436018
0.00436017
0.00436017
0.00436016
0.00436014
0.00436007
0.00436006
0.0043619
0.00452721
0.00452721
0.00452721
0.00452721
0.0045272
0.00452719
0.00452714
0.00452717
0.00452865
0.00470899
0.00470898
0.00470898
0.00470898
0.00470898
0.00470897
0.00470894
0.00470894
0.00470997
0.00490124
0.00490123
0.00490123
0.00490123
0.00490123
0.00490122
0.00490119
0.00490115
0.00490157
0.00509714
0.00509714
0.00509714
0.00509714
0.00509714
0.00509713
0.00509711
0.00509711
0.00509767
0.00529843
0.00529842
0.00529842
0.00529842
0.00529842
0.00529841
0.00529839
0.00529842
0.00529903
0.00315528
0.00315528
0.00315529
0.00315526
0.00315523
0.00315528
0.00315532
0.00315561
0.0031598
0.00318931
0.00318933
0.00318939
0.00318942
0.00318935
0.00318933
0.00318936
0.0031898
0.00319413
0.00322853
0.00322852
0.00322856
0.00322859
0.00322868
0.00322863
0.00322856
0.00322895
0.00323461
0.00328573
0.00328572
0.00328567
0.0032857
0.00328574
0.00328582
0.00328578
0.00328607
0.00329242
0.00335509
0.00335509
0.00335511
0.00335514
0.00335515
0.00335512
0.00335505
0.00335542
0.0033616
0.00342705
0.00342705
0.00342705
0.00342704
0.00342704
0.00342703
0.00342695
0.00342722
0.00343267
0.00350439
0.00350439
0.0035044
0.0035044
0.00350441
0.00350439
0.00350431
0.00350462
0.00351044
0.00358654
0.00358654
0.00358654
0.00358655
0.00358656
0.00358655
0.00358647
0.00358668
0.00359276
0.00367507
0.00367507
0.00367508
0.00367509
0.0036751
0.00367511
0.00367506
0.00367536
0.00368151
0.00377546
0.00377545
0.00377546
0.00377547
0.00377549
0.00377552
0.00377549
0.00377573
0.00378137
0.00388257
0.00388258
0.00388258
0.0038826
0.00388262
0.00388266
0.00388268
0.00388294
0.00388796
0.00400485
0.00400485
0.00400486
0.00400487
0.0040049
0.00400495
0.00400497
0.00400522
0.00400981
0.00414693
0.00414693
0.00414694
0.00414695
0.00414698
0.00414701
0.00414701
0.00414726
0.00415144
0.00430541
0.00430542
0.00430542
0.00430544
0.00430546
0.00430549
0.00430551
0.00430583
0.00430969
0.00448029
0.00448029
0.0044803
0.00448032
0.00448035
0.00448039
0.00448044
0.00448082
0.00448417
0.00467031
0.00467031
0.00467032
0.00467034
0.00467037
0.00467041
0.00467047
0.00467072
0.00467287
0.00487113
0.00487114
0.00487114
0.00487116
0.00487118
0.00487122
0.00487127
0.0048714
0.00487247
0.00507843
0.00507843
0.00507844
0.00507845
0.00507846
0.00507847
0.00507849
0.00507865
0.00507985
0.00528928
0.00528928
0.00528928
0.00528929
0.00528929
0.00528928
0.00528928
0.00528944
0.0052907
0.00454082
0.00459543
0.00464922
0.00470176
0.00475357
0.004805
0.00485567
0.00490605
0.00495624
0.00500606
0.00505563
0.00510501
0.00515416
0.00520365
0.00525362
0.00530389
0.00535417
0.00540381
0.00545204
0.00455507
0.00460824
0.00466073
0.00471216
0.00476295
0.00481334
0.00486316
0.00491271
0.00496213
0.00501134
0.0050603
0.00510911
0.00515769
0.00520626
0.00525543
0.00530537
0.00535511
0.00540398
0.0054519
0.00459004
0.00464446
0.00469849
0.00475136
0.00480319
0.00485452
0.0049052
0.00495552
0.00500561
0.00505528
0.00510457
0.0051536
0.00520255
0.00525209
0.00530268
0.00535334
0.00540314
0.00545176
0.00549948
0.00460332
0.00465647
0.0047089
0.00476035
0.00481115
0.00486156
0.00491149
0.00496113
0.00501064
0.00505974
0.00510829
0.00515685
0.00520553
0.0052546
0.00530443
0.00535448
0.0054037
0.00545176
0.0054992
0.00463937
0.00469415
0.00474766
0.00480029
0.00485207
0.00490332
0.00495398
0.0050043
0.00505429
0.00510386
0.00515305
0.00520208
0.00525149
0.00530159
0.00535243
0.00540282
0.0054517
0.00549963
0.00554721
0.00465101
0.00470474
0.00475673
0.0048077
0.00485847
0.00490916
0.00495922
0.00500917
0.00505905
0.00510838
0.00515673
0.00520452
0.00525327
0.0053033
0.00535357
0.00540318
0.00545172
0.00549937
0.00554666
0.00468743
0.00474263
0.00479628
0.00484794
0.00489927
0.00495082
0.00500172
0.00505238
0.00510274
0.00515228
0.00520147
0.00525085
0.00530096
0.00535144
0.00540165
0.00545142
0.00550004
0.00554769
0.0055953
0.00469734
0.0047515
0.00480361
0.00485367
0.00490412
0.00495526
0.00500569
0.00505597
0.00510667
0.00515655
0.00520483
0.00525239
0.00530114
0.00535168
0.00540208
0.00545112
0.00549934
0.00554697
0.00559432
0.00473447
0.00478916
0.0048433
0.00489482
0.00494527
0.00499683
0.00504835
0.00509938
0.00515063
0.00520084
0.00525022
0.00530024
0.00535083
0.00540105
0.00545031
0.00549923
0.00554794
0.00559602
0.00564387
0.00474323
0.0047968
0.00484924
0.00489974
0.00494998
0.0050011
0.00505192
0.00510231
0.00515333
0.00520385
0.00525247
0.00530057
0.00534991
0.00540015
0.00544998
0.0054988
0.00554691
0.00559468
0.00564228
0.00478188
0.0048352
0.00488919
0.00494149
0.00499224
0.00504374
0.0050955
0.0051468
0.00519837
0.00524946
0.00529973
0.00535025
0.00540079
0.00545033
0.00549889
0.00554721
0.00559577
0.00564438
0.00569292
0.00479021
0.00484299
0.00489559
0.00494736
0.004998
0.00504857
0.0050995
0.00515
0.00520054
0.00525116
0.00530097
0.00535024
0.00539976
0.00544944
0.00549851
0.00554681
0.00559478
0.00564262
0.00569046
0.00483035
0.00488307
0.00493663
0.00498944
0.00504155
0.0050934
0.00514458
0.00519578
0.00524736
0.00529876
0.00534995
0.00540073
0.00545075
0.00549979
0.00554788
0.00559594
0.00564447
0.0056934
0.00574291
0.0048391
0.00489177
0.00494426
0.00499641
0.00504732
0.00509716
0.00514766
0.0051987
0.00524933
0.00529998
0.00535071
0.00540095
0.00545016
0.005499
0.00554743
0.00559518
0.00564298
0.00569093
0.00573925
0.00487959
0.0049334
0.00498685
0.00503961
0.00509211
0.00514441
0.00519519
0.00524571
0.00529749
0.00534925
0.00540064
0.00545101
0.00550016
0.0055489
0.00559717
0.00564538
0.00569428
0.00574409
0.0057947
0.00488902
0.00494204
0.00499403
0.00504558
0.00509682
0.00514679
0.00519637
0.00524734
0.00529902
0.00535021
0.00540082
0.00545065
0.00549946
0.00554797
0.00559617
0.00564373
0.00569155
0.00573995
0.00578926
0.00492955
0.00498437
0.00503782
0.00509023
0.00514217
0.00519429
0.00524579
0.00529675
0.00534841
0.00539999
0.00545085
0.00550075
0.00554923
0.00559761
0.00564645
0.0056955
0.00574538
0.00579623
0.00584753
0.00493898
0.00499212
0.00504374
0.00509426
0.00514543
0.00519681
0.00524679
0.00529698
0.0053488
0.00540042
0.00545062
0.00550004
0.00554836
0.0055964
0.00564476
0.00569268
0.00574085
0.00579023
0.00584079
0.0049803
0.00503495
0.00508825
0.00514042
0.00519203
0.00524394
0.00529632
0.00534839
0.00539972
0.00545024
0.00550001
0.00554992
0.00559915
0.00564762
0.00569689
0.00574695
0.00579763
0.00584881
0.00589985
0.00498885
0.00504185
0.00509338
0.00514356
0.00519433
0.00524643
0.00529814
0.00534873
0.00539928
0.00544997
0.00549989
0.00554938
0.0055983
0.0056461
0.00569404
0.00574253
0.00579157
0.00584197
0.00589307
0.00503131
0.00508549
0.0051385
0.00519058
0.00524255
0.0052951
0.00534781
0.00539966
0.00545032
0.00549993
0.00554904
0.00559894
0.00564959
0.00569953
0.0057493
0.00579961
0.00585023
0.00590092
0.00595147
0.00503867
0.00509145
0.00514288
0.00519343
0.00524479
0.00529693
0.00534887
0.00540018
0.00545035
0.00549959
0.00554866
0.00559816
0.00564785
0.00569698
0.00574543
0.00579411
0.00584385
0.00589433
0.00594484
0.00508232
0.00513612
0.00518894
0.00524139
0.0052942
0.00534721
0.00539957
0.00545047
0.00550018
0.00554953
0.0055987
0.00564846
0.00569978
0.00575141
0.00580204
0.00585214
0.00590227
0.00595248
0.00600281
0.0050884
0.00514111
0.00519288
0.00524428
0.00529617
0.00534805
0.00539917
0.00545007
0.00550027
0.00554939
0.00559792
0.00564675
0.00569659
0.00574712
0.00579721
0.00584661
0.00589619
0.00594601
0.00599568
0.00513304
0.00518677
0.00524004
0.00529345
0.00534679
0.0053994
0.0054508
0.00550102
0.00555019
0.00559916
0.00564853
0.00569848
0.00574985
0.00580209
0.00585345
0.00590369
0.00595372
0.00600397
0.00605414
0.00513796
0.00519105
0.0052436
0.0052959
0.00534771
0.00539903
0.00544995
0.00550014
0.00554973
0.00559901
0.00564781
0.00569633
0.0057457
0.00579655
0.00584778
0.00589797
0.00594751
0.00599691
0.00604625
0.00518379
0.00523804
0.00529242
0.0053465
0.00539946
0.00545104
0.00550154
0.00555132
0.00560055
0.00564931
0.0056985
0.00574867
0.00580008
0.00585261
0.00590436
0.0059548
0.0060051
0.00605562
0.00610578
0.00518819
0.00524184
0.00529532
0.00534791
0.00539921
0.0054502
0.00550072
0.00555034
0.00559951
0.00564835
0.00569723
0.00574621
0.00579542
0.00584624
0.00589791
0.00594847
0.00599819
0.00604764
0.00609705
0.00523583
0.00529108
0.00534611
0.00539961
0.00545131
0.00550205
0.00555211
0.00560168
0.005651
0.00570023
0.00574969
0.00579982
0.0058512
0.00590374
0.00595581
0.0060065
0.00605682
0.00610754
0.00615791
0.00523963
0.00529406
0.00534821
0.00540056
0.00545109
0.00550122
0.00555097
0.00560036
0.00564928
0.00569778
0.00574638
0.00579556
0.00584539
0.00589647
0.00594847
0.00599929
0.00604907
0.00609866
0.00614811
0.00529027
0.00534566
0.00539956
0.00545153
0.00550203
0.00555231
0.00560264
0.00565241
0.00570197
0.00575183
0.00580218
0.00585275
0.00590383
0.0059558
0.0060079
0.00605902
0.00610933
0.00615981
0.0062101
0.00529268
0.00534732
0.00540056
0.0054522
0.00550246
0.00555193
0.0056013
0.00565075
0.00569964
0.00574792
0.00579662
0.00584604
0.00589619
0.00594757
0.0059997
0.00605085
0.00610062
0.0061501
0.00619942
0.00534603
0.00540019
0.00545229
0.00550309
0.00555326
0.00560299
0.0056533
0.0057036
0.00575373
0.00580453
0.00585575
0.00590663
0.00595759
0.0060093
0.00606105
0.00611221
0.00616292
0.00621299
0.00626222
0.00534714
0.00540067
0.00545221
0.0055029
0.00555342
0.00560302
0.0056519
0.00570113
0.00575037
0.00579907
0.00584827
0.00589818
0.00594862
0.00599997
0.00605189
0.00610301
0.00615303
0.00620224
0.00625122
0.0054008
0.00545311
0.00550465
0.00555541
0.00560561
0.00565524
0.00570507
0.0057554
0.00580612
0.00585795
0.00591001
0.00596103
0.00601193
0.00606374
0.00611549
0.00616639
0.00621718
0.00626773
0.00631555
0.00540136
0.00545325
0.00550395
0.00555437
0.00560476
0.00565453
0.00570324
0.00575165
0.00580096
0.00585078
0.00590097
0.00595151
0.00600215
0.00605332
0.00610497
0.00615596
0.0062059
0.00625535
0.00630409
0.00545404
0.00550519
0.0055567
0.00560786
0.00565806
0.00570798
0.00575787
0.00580808
0.00585929
0.00591161
0.00596424
0.00601609
0.00606736
0.00611911
0.00617067
0.0062215
0.00627231
0.00632252
0.00637025
0.00545419
0.00550511
0.00555551
0.00560605
0.005656
0.00570568
0.00575487
0.00580331
0.0058526
0.00590311
0.00595457
0.00600586
0.0060565
0.00610743
0.00615876
0.00620954
0.00625944
0.00630903
0.00635816
0.00325106
0.00330793
0.0033515
0.00338491
0.00344412
0.00350779
0.00357362
0.00364168
0.00371239
0.00378305
0.00385362
0.00392701
0.0040016
0.00407652
0.00415379
0.00423306
0.00431236
0.00439174
0.00447226
0.00316716
0.00320097
0.00324797
0.00330405
0.00336678
0.00342413
0.00349541
0.00356959
0.00364743
0.00372461
0.00380198
0.00388199
0.00396276
0.00404609
0.00413186
0.00421697
0.00430287
0.00439172
0.00448226
0.00323315
0.00328558
0.00332795
0.00337903
0.00343641
0.00348995
0.00355994
0.00363254
0.00370761
0.00378371
0.00386096
0.00394061
0.00402074
0.00410212
0.00418572
0.00426874
0.00435081
0.0044342
0.00451919
0.00312213
0.0031793
0.00322504
0.00328057
0.00334382
0.00341177
0.00348394
0.00356027
0.00364277
0.00372649
0.00381107
0.00389689
0.00398356
0.00407352
0.00416407
0.00425268
0.00434309
0.00443613
0.00452918
0.00322768
0.00327533
0.00331683
0.00336787
0.00342631
0.00348582
0.00355942
0.00363629
0.00371561
0.00379656
0.00387845
0.00396165
0.00404591
0.00413301
0.00422094
0.00430646
0.00439185
0.00447921
0.00456715
0.0031173
0.00317067
0.00321496
0.00326989
0.00333329
0.0034034
0.00347977
0.00356464
0.00365072
0.00373885
0.0038286
0.00391904
0.00401119
0.00410574
0.00419892
0.00429119
0.0043859
0.0044817
0.00457605
0.00323562
0.00328011
0.00332082
0.00337136
0.00342998
0.0034954
0.00356788
0.00365097
0.00373414
0.00381891
0.00390465
0.00399092
0.00407865
0.00416926
0.00425949
0.0043475
0.00443664
0.00452681
0.00461545
0.00314322
0.00317376
0.00321834
0.00327377
0.00333858
0.00341035
0.00348861
0.00358147
0.00367116
0.00376252
0.00385559
0.00394954
0.00404588
0.00414315
0.00423815
0.00433412
0.00443223
0.00452857
0.00462259
0.00325526
0.00329579
0.00333771
0.00338871
0.0034474
0.00351375
0.00358811
0.00367713
0.00376274
0.00384978
0.00393845
0.00402793
0.00411899
0.0042114
0.00430257
0.00439336
0.00448556
0.00457659
0.00466408
0.00316125
0.00319092
0.00323696
0.00329381
0.00335941
0.00343167
0.00351083
0.00359602
0.00368547
0.00379682
0.00389238
0.00398868
0.00408756
0.00418595
0.00428315
0.00438229
0.00448156
0.00457713
0.00466987
0.00328949
0.00332487
0.00336815
0.00341864
0.00347919
0.0035463
0.00362101
0.00371638
0.00380351
0.00389142
0.00398133
0.00407336
0.00416614
0.00425896
0.00435119
0.00444431
0.00453771
0.00462793
0.00471352
0.00319469
0.0032243
0.00327066
0.00332766
0.00339354
0.00346657
0.00354698
0.00363313
0.00372381
0.0038397
0.0039384
0.00403739
0.00413708
0.0042348
0.0043336
0.00443454
0.00453321
0.00462746
0.00471836
0.00333553
0.00336897
0.00340868
0.00346056
0.00352337
0.0035914
0.00366729
0.00374864
0.00383544
0.00394445
0.0040354
0.004128
0.00422075
0.00431257
0.00440511
0.0044992
0.00459137
0.004679
0.00476282
0.00323977
0.00327006
0.00331587
0.00337361
0.00344053
0.00351482
0.00359665
0.00368285
0.00377317
0.00389297
0.00399356
0.00409402
0.00419325
0.00428987
0.0043889
0.00448945
0.00458583
0.00467801
0.00476763
0.00339384
0.00342251
0.00346474
0.00351619
0.00358199
0.00365191
0.00372802
0.00380852
0.00389596
0.00400906
0.00409983
0.00419153
0.00428298
0.00437325
0.00446455
0.00455683
0.00464557
0.00472945
0.00481139
0.00329903
0.00333069
0.00337844
0.00343566
0.00350201
0.00357747
0.00366038
0.00374714
0.00383703
0.00396013
0.0040589
0.00415702
0.00425511
0.00435138
0.00444962
0.00454745
0.00463952
0.00472871
0.00481738
0.00345813
0.00349123
0.00353622
0.00358893
0.00365413
0.00372657
0.00380017
0.00387914
0.00396782
0.00408321
0.00417243
0.00426282
0.00435215
0.00443965
0.00452878
0.00461763
0.0047014
0.00478143
0.00486115
0.00336757
0.00340183
0.00345217
0.00351236
0.00357869
0.00365266
0.0037342
0.00382147
0.00391214
0.00403831
0.00413533
0.00422948
0.00432515
0.00442017
0.00451573
0.00460875
0.00469584
0.00478173
0.00486822
0.00353648
0.00357173
0.00361989
0.00367251
0.00373609
0.00380868
0.00388128
0.00396156
0.00404848
0.00416623
0.004253
0.00434118
0.00442793
0.0045115
0.00459698
0.00468143
0.00475993
0.00483637
0.00491337
0.0034516
0.00348649
0.00353791
0.00360051
0.00366884
0.00374219
0.00382199
0.00390801
0.00399719
0.00408871
0.00418343
0.00431137
0.00440325
0.00449511
0.0045859
0.00467291
0.00475529
0.00483781
0.00492048
0.00363561
0.00367093
0.0037194
0.00377701
0.00383736
0.00390615
0.00398085
0.00406029
0.00414305
0.00426194
0.0043446
0.00442762
0.00451003
0.00458926
0.00466999
0.00474881
0.00482173
0.00489413
0.00496711
0.00355712
0.00359496
0.00364578
0.00370601
0.00377226
0.00384434
0.00392557
0.00400975
0.00409604
0.00418485
0.00427563
0.004401
0.00448726
0.00457401
0.00465953
0.00474027
0.00481771
0.00489592
0.00497332
0.00374998
0.00378441
0.00383347
0.00389317
0.00395537
0.00402075
0.00409327
0.0041675
0.00424987
0.00436867
0.00444657
0.00452363
0.00459975
0.004673
0.00474756
0.00482021
0.0048871
0.00495395
0.0050214
0.00368004
0.00372037
0.0037727
0.00383273
0.00389711
0.00396736
0.00404322
0.00412323
0.00420784
0.00429297
0.00437766
0.00449973
0.00457862
0.00465767
0.00473701
0.00481176
0.00488328
0.00495511
0.00502604
0.00389378
0.00392839
0.00397525
0.00403356
0.00408964
0.00415401
0.00422323
0.00429201
0.00437131
0.0044851
0.00455655
0.00462755
0.00469716
0.00476261
0.00482884
0.00489445
0.00495481
0.00501489
0.00507556
0.00383068
0.00386826
0.00391975
0.0039789
0.0040412
0.00410745
0.00417675
0.00425304
0.00433354
0.00441256
0.00449093
0.00460712
0.00467773
0.00474741
0.00481842
0.00488655
0.00495138
0.00501569
0.00507905
0.00406441
0.00409792
0.00413926
0.00419117
0.00425158
0.00431176
0.00437058
0.00443613
0.0045046
0.00461269
0.00467746
0.00474041
0.00480152
0.00485785
0.00491375
0.0049709
0.0050244
0.00507696
0.00513
0.00401295
0.00404865
0.00409379
0.00414757
0.00420586
0.00426669
0.00433021
0.00439923
0.00447075
0.00454205
0.00461428
0.00472313
0.00478432
0.0048438
0.00490427
0.00496418
0.00502146
0.00507797
0.00513336
0.00426274
0.0042946
0.00433222
0.00437455
0.00442156
0.00447491
0.00453397
0.00458904
0.00464486
0.00475105
0.00480908
0.00486278
0.00491329
0.00495944
0.00500434
0.00505129
0.00509704
0.00514137
0.00518571
0.00421632
0.00425165
0.00429369
0.00433819
0.00438609
0.00443995
0.00449902
0.00455856
0.00461946
0.00468328
0.0047479
0.00484846
0.00489923
0.0049475
0.00499623
0.00504637
0.00509456
0.00514178
0.00518853
0.00447603
0.0045057
0.00454159
0.00458462
0.00462317
0.00465952
0.00470193
0.00474866
0.00479805
0.00489825
0.00494658
0.00499012
0.00503044
0.00506732
0.00510209
0.00513837
0.00517489
0.00520975
0.00524435
0.0044408
0.00447092
0.00450812
0.00455029
0.00459085
0.00463161
0.0046779
0.00472807
0.00478084
0.00483562
0.00488941
0.00497928
0.00501992
0.00505714
0.00509473
0.00513441
0.00517246
0.00520892
0.00524575
0.00471228
0.00473589
0.00476734
0.00480161
0.00483823
0.00486521
0.00489226
0.00492615
0.00496958
0.00505401
0.00508816
0.00512118
0.00515157
0.0051788
0.00520431
0.00522992
0.00525645
0.00528145
0.00530575
0.00468748
0.00471499
0.0047485
0.0047816
0.00481282
0.00484232
0.00487503
0.00491366
0.00495534
0.00499675
0.00503604
0.00511403
0.00514459
0.00517127
0.00519826
0.00522657
0.00525415
0.00528013
0.00530615
0.00497809
0.00499511
0.00501234
0.00502764
0.00504838
0.0050724
0.00509657
0.0051199
0.00514502
0.00521459
0.00523472
0.00525565
0.00527449
0.00529115
0.0053068
0.00532187
0.00533749
0.00535271
0.00536686
0.00495452
0.00497445
0.00499729
0.00501857
0.00504075
0.00506285
0.00508629
0.00511119
0.00513648
0.00516256
0.00518773
0.0052515
0.00527067
0.00528719
0.00530325
0.00531981
0.00533624
0.00535215
0.00536712
0.00524632
0.00525656
0.00526579
0.00527508
0.00528466
0.00534894
0.00535739
0.00531666
0.00532666
0.00537834
0.00538523
0.00539207
0.00539786
0.00540334
0.00540786
0.00541263
0.00541677
0.00542171
0.00542586
0.00523573
0.00524703
0.00525898
0.00526829
0.00527888
0.00529026
0.00530157
0.0053124
0.00532186
0.00537691
0.00538381
0.00539084
0.00539666
0.00540223
0.00540674
0.00541191
0.00541652
0.00542161
0.00542608
0.0032788
0.00332295
0.00336905
0.00342465
0.00348647
0.00355116
0.00361577
0.00368186
0.00374959
0.00381605
0.00388196
0.00395088
0.00402134
0.00409212
0.00416588
0.00424318
0.00432108
0.00439807
0.00447631
0.00331627
0.00336086
0.00341817
0.00348149
0.00354805
0.00361535
0.00368093
0.00374685
0.00381259
0.0038764
0.0039408
0.00400848
0.00407724
0.00414679
0.00422034
0.00429731
0.00437433
0.0044512
0.00453029
0.00336766
0.00341774
0.00347933
0.00354613
0.00361509
0.00368305
0.00374812
0.00381258
0.0038761
0.00393739
0.00399992
0.00406615
0.00413359
0.00420227
0.00427531
0.00435122
0.00442681
0.00450347
0.00458325
0.0034282
0.00347612
0.00354824
0.00361721
0.00368606
0.00375257
0.0038161
0.00387837
0.0039398
0.00399953
0.00406024
0.00412461
0.00419089
0.00425856
0.00433036
0.00440501
0.00447967
0.00455588
0.00463556
0.00349289
0.00354146
0.00361921
0.00369045
0.00375875
0.00382339
0.00388528
0.00394529
0.0040041
0.00406268
0.00412207
0.00418431
0.00424932
0.00431582
0.00438564
0.00445886
0.00453292
0.00460856
0.00468768
0.00355787
0.0036088
0.00369223
0.00376373
0.00383129
0.00389463
0.00395512
0.00401347
0.00406991
0.00412658
0.00418463
0.00424504
0.0043083
0.0043735
0.00444175
0.00451366
0.00458681
0.00466145
0.00473947
0.00363535
0.00368636
0.00377003
0.00384046
0.00390646
0.00396781
0.0040261
0.00408251
0.00413719
0.00419181
0.00424829
0.00430708
0.00436827
0.00443173
0.00449865
0.0045691
0.00464083
0.00471418
0.00479083
0.00371303
0.00376669
0.00385187
0.00392083
0.00398434
0.00404306
0.00409871
0.0041528
0.00420586
0.00425881
0.00431352
0.00437068
0.00443034
0.00449217
0.00455725
0.00462594
0.00469592
0.00476749
0.00484226
0.00380038
0.00385341
0.00393687
0.00400316
0.00406366
0.00411987
0.00417355
0.00422549
0.0042767
0.00432805
0.00438112
0.00443649
0.00449482
0.00455595
0.00461926
0.00468583
0.00475425
0.00482305
0.00489423
0.00389222
0.00394101
0.00402509
0.004088
0.00414575
0.00420016
0.00425203
0.00430204
0.00435117
0.00440069
0.00445235
0.0045063
0.0045629
0.00462281
0.00468466
0.00474883
0.00481522
0.00488079
0.00494687
0.00398988
0.00403645
0.0040971
0.00415786
0.00423401
0.0042861
0.00433552
0.00438378
0.0044314
0.00447912
0.00452911
0.00458191
0.00463683
0.0046945
0.00475375
0.00481442
0.00487725
0.00493903
0.00499982
0.00410465
0.0041499
0.00420096
0.00425535
0.00433234
0.00438077
0.00442745
0.00447379
0.00452027
0.00456668
0.00461447
0.00466533
0.00471818
0.00477264
0.004828
0.00488367
0.00494071
0.00499724
0.00505255
0.00423709
0.00427552
0.00431908
0.00439787
0.00444359
0.00448893
0.00453289
0.00457612
0.00462034
0.00466511
0.00471029
0.00475727
0.00480593
0.00485548
0.00490565
0.00495548
0.00500558
0.0050558
0.00510514
0.00438212
0.00441618
0.00445548
0.00449626
0.00453727
0.00461278
0.00465386
0.00469319
0.00473304
0.00477361
0.00481446
0.00485594
0.00489823
0.00494122
0.00498472
0.00502797
0.0050711
0.00511482
0.005158
0.00458623
0.00457256
0.00460478
0.00464174
0.00467917
0.00475169
0.00478675
0.00482132
0.00485618
0.00489036
0.0049243
0.00495905
0.00499423
0.00502973
0.00506583
0.00510183
0.00513769
0.00517427
0.00521086
0.00472302
0.00474411
0.00477417
0.00480306
0.00483374
0.00490065
0.00492825
0.00495558
0.00498359
0.00501139
0.0050383
0.00506517
0.00509268
0.00512071
0.00514904
0.00517747
0.0052059
0.00523472
0.00526404
0.00490602
0.00492469
0.00494838
0.00497126
0.00499389
0.00505399
0.00507454
0.00509459
0.00511405
0.0051338
0.00515411
0.00517383
0.00519332
0.00521361
0.0052341
0.00525476
0.00527568
0.00529687
0.00531833
0.00510658
0.00511762
0.00512908
0.00514349
0.00515862
0.00521229
0.00522431
0.00523675
0.00524853
0.00525991
0.00527226
0.00528468
0.00529634
0.00530857
0.00532127
0.00533382
0.00534674
0.00535988
0.00537287
0.00530704
0.00531343
0.00531744
0.0053644
0.00536842
0.00537223
0.00537581
0.00537973
0.00538393
0.00538783
0.00539186
0.00539627
0.00540007
0.00540402
0.00540845
0.0054126
0.00541687
0.00542143
0.00542572
0.00318085
0.00321681
0.00326625
0.00332993
0.00339826
0.00346867
0.00353893
0.00361083
0.00368432
0.00375645
0.00382921
0.00390489
0.0039815
0.00406072
0.00414382
0.00422739
0.00431081
0.00439679
0.0044856
0.00320807
0.00325794
0.00331551
0.00338054
0.00346287
0.00353558
0.00360621
0.00367737
0.00374819
0.00381743
0.00388884
0.00396267
0.00403734
0.00411561
0.00419826
0.00428149
0.00436457
0.00445001
0.00453865
0.00326327
0.00331138
0.00337459
0.00344499
0.00353333
0.00360663
0.0036762
0.0037451
0.00381322
0.00387976
0.00394918
0.00402127
0.00409437
0.00417147
0.00425271
0.00433438
0.00441666
0.00450232
0.00459108
0.00332486
0.00337537
0.00344103
0.0035152
0.00360745
0.00367955
0.00374719
0.00381332
0.00387908
0.00394356
0.00401052
0.00408094
0.00415263
0.00422795
0.00430757
0.00438777
0.0044691
0.00455449
0.00464286
0.0033945
0.00344604
0.00351323
0.00358972
0.00368321
0.00375341
0.00381877
0.00388218
0.00394562
0.00400889
0.00407357
0.00414187
0.00421227
0.0042854
0.00436298
0.00444211
0.00452257
0.00460696
0.00469428
0.00346216
0.00351774
0.00358971
0.00366643
0.00375988
0.003828
0.00389127
0.00395258
0.00401337
0.00407502
0.00413802
0.00420394
0.00427265
0.00434394
0.00441959
0.00449751
0.00457672
0.00465971
0.00474542
0.00354348
0.0036009
0.00367154
0.00374609
0.00383809
0.00390399
0.00396539
0.00402476
0.00408313
0.00414235
0.00420364
0.00426744
0.00433399
0.0044035
0.0044775
0.00455375
0.00463123
0.00471249
0.00479626
0.00362755
0.00368519
0.00375431
0.00382824
0.00391784
0.00398121
0.00404085
0.00409848
0.00415479
0.00421164
0.00427086
0.00433291
0.0043977
0.0044653
0.00453714
0.00461141
0.00468702
0.00476611
0.00484719
0.0037175
0.00377411
0.00384246
0.00391404
0.00400041
0.00406099
0.0041186
0.00417451
0.00422878
0.0042836
0.00434068
0.00440078
0.00446426
0.00453034
0.00459991
0.00467226
0.00474558
0.00482122
0.00489853
0.00381428
0.00386716
0.00393288
0.00400218
0.00406415
0.00412304
0.00420004
0.0042538
0.00430648
0.0043598
0.00441481
0.00447258
0.0045345
0.00459922
0.00466665