/*--------------------------------*- C++ -*----------------------------------*\
| =========                 |                                                 |
| \\      /  F ield         | foam-extend: Open Source CFD                    |
|  \\    /   O peration     | Version:     3.1                                |
|   \\  /    A nd           | Web:         http://www.extend-project.de       |
|    \\/     M anipulation  |                                                 |
\*---------------------------------------------------------------------------*/
FoamFile
{
    version     2.0;
    format      ascii;
    class       volScalarField;
    location    "345600";
    object      a;
}
// * * * * * * * * * * * * * * * * * * * * * * * * * * * * * * * * * * * * * //

dimensions      [1 -3 0 0 0 0 0];

internalField   nonuniform List<scalar> 
23248
(
0.00120378
0.00120487
0.00119552
0.00120496
0.00120159
0.00119517
0.00119734
0.00120056
0.00120549
0.00120558
0.00119589
0.00120565
0.00120549
0.00119982
0.0012036
0.0011957
0.00119906
0.00120499
0.00120351
0.00120551
0.00120187
0.00119443
0.00120419
0.00120521
0.00120214
0.00120309
0.00120292
0.00119871
0.00120187
0.00119605
0.00120247
0.00119438
0.00119732
0.00119455
0.00119517
0.00120388
0.00120234
0.00119781
0.0012054
0.00119441
0.00119926
0.00119858
0.00120319
0.00120354
0.00119624
0.00119988
0.00119935
0.00120176
0.00120251
0.00120306
0.00119731
0.00120216
0.00120186
0.00119595
0.00119543
0.00119998
0.00120552
0.00119808
0.00120102
0.00119669
0.00120302
0.00119706
0.00120007
0.00120239
0.00120469
0.00120551
0.00120057
0.00119566
0.00119579
0.00119709
0.00120409
0.00119705
0.00120377
0.00119692
0.00120515
0.0011982
0.00119636
0.00119701
0.00120139
0.00119968
0.00119822
0.00120397
0.00120102
0.0012006
0.00120501
0.00119743
0.00120309
0.00120304
0.00119857
0.00120081
0.00119491
0.00119465
0.00120037
0.00120335
0.00120521
0.00119556
0.00120083
0.00119963
0.00119414
0.00119805
0.00119595
0.00120353
0.00119773
0.00120034
0.00119599
0.00120122
0.00119716
0.00120185
0.00120227
0.00120298
0.00119941
0.00119501
0.00119675
0.00120496
0.00119583
0.00120391
0.00120046
0.00120595
0.00119494
0.00119931
0.00119528
0.00120554
0.00119406
0.0012033
0.00120381
0.00120442
0.00119501
0.0011988
0.00119712
0.0012036
0.00119918
0.00120493
0.00119618
0.00119717
0.00119575
0.00119563
0.00120443
0.00120096
0.0012006
0.00119574
0.00120424
0.00120146
0.00119821
0.00120016
0.00119882
0.00119491
0.00119688
0.00119548
0.00119621
0.00119688
0.00119901
0.0011946
0.00120483
0.00120534
0.00119989
0.00119987
0.00119805
0.0012048
0.00119843
0.00119533
0.00120336
0.00119868
0.0011969
0.00119885
0.00119516
0.00119558
0.0012053
0.00120547
0.0012009
0.00119472
0.00119682
0.00119824
0.00120385
0.00119418
0.00119452
0.00119603
0.00120179
0.00120278
0.00120177
0.00119941
0.00120056
0.00119756
0.00120294
0.00119627
0.00120224
0.0011962
0.00119842
0.00120151
0.00120336
0.00119497
0.00120515
0.00120331
0.00119984
0.00119923
0.00119936
0.00119768
0.0012001
0.00120013
0.00120381
0.00120354
0.00120173
0.00119854
0.00120374
0.00120039
0.00119821
0.00120527
0.00120451
0.0012006
0.00120147
0.00120104
0.00119649
0.00119761
0.00119965
0.00119677
0.00120413
0.00119634
0.00119671
0.00119605
0.00119673
0.00119923
0.00119773
0.00120508
0.00119916
0.00119622
0.00120486
0.00120576
0.00119927
0.00119533
0.0011971
0.0011989
0.00120114
0.00119715
0.00120123
0.00120253
0.00119666
0.00119541
0.00119756
0.00119783
0.00119909
0.00120009
0.00119503
0.00119715
0.00120361
0.00119435
0.00120515
0.00120276
0.00119986
0.00120094
0.00119685
0.00119951
0.00120556
0.00120056
0.00120025
0.00119678
0.00119987
0.00120149
0.00120215
0.00119875
0.00119841
0.00120586
0.00119445
0.00120462
0.00120496
0.00120355
0.00119518
0.00119714
0.00119802
0.00120216
0.00119564
0.00120265
0.00119528
0.00120185
0.00119993
0.00120335
0.00120258
0.00120484
0.00120469
0.00119801
0.00120238
0.00119637
0.00119437
0.00120293
0.0012
0.00119976
0.00120486
0.00120132
0.00120141
0.00120431
0.00120367
0.00120092
0.0011962
0.00119688
0.00120464
0.00119434
0.00119988
0.00119602
0.00120574
0.00120255
0.00120001
0.00119965
0.00119472
0.00120218
0.00119451
0.00119486
0.00120026
0.00119516
0.00120382
0.00120381
0.00120267
0.0011958
0.00120192
0.00120022
0.00120568
0.00120179
0.0012036
0.00119945
0.00119919
0.0012039
0.001195
0.0011956
0.00119608
0.00119869
0.00120398
0.00120364
0.00119473
0.00119879
0.00120032
0.001199
0.00120188
0.00120154
0.0011975
0.00119918
0.00119419
0.00120581
0.00119601
0.00119527
0.00119847
0.00119638
0.00119988
0.00119807
0.00120542
0.00120504
0.00119463
0.00120285
0.00119723
0.00119907
0.00120057
0.00120531
0.00119901
0.0012058
0.00119762
0.00120241
0.001202
0.00120047
0.00120238
0.001202
0.00119614
0.00119554
0.00120599
0.00119605
0.00119439
0.00120073
0.00120458
0.00120203
0.00119629
0.00119843
0.00119953
0.00120578
0.00119588
0.00120427
0.00120174
0.00119852
0.00119629
0.00119914
0.00119978
0.00119545
0.00120107
0.00119671
0.00119862
0.001201
0.00119702
0.00119749
0.00120141
0.00119718
0.00120389
0.00120579
0.00120276
0.00119813
0.00120101
0.00119529
0.00120488
0.00120456
0.00120381
0.00119713
0.00120113
0.00119427
0.0011991
0.00119775
0.00119594
0.00119615
0.00119907
0.00119513
0.00120118
0.00119965
0.00120235
0.0012024
0.00120166
0.0011944
0.00119483
0.00119784
0.00120037
0.00120185
0.00119889
0.00120384
0.00120262
0.00120562
0.00120038
0.0011979
0.00119527
0.00120133
0.00120335
0.00119908
0.00119509
0.0011972
0.00119584
0.00119737
0.00119928
0.00120033
0.00119949
0.0012045
0.00120022
0.00120532
0.00120165
0.00120549
0.00119689
0.00120211
0.00119747
0.00120206
0.00120234
0.00119482
0.00119706
0.00119669
0.00120201
0.00120413
0.00119813
0.00120337
0.0012021
0.00119408
0.00120123
0.00119864
0.00120499
0.00119401
0.00119955
0.00119909
0.00119953
0.00120324
0.00119787
0.00120342
0.00119966
0.00119443
0.00119611
0.00120266
0.00119968
0.00119583
0.00119809
0.00120129
0.0011963
0.00120286
0.00119691
0.00120501
0.00119723
0.00120319
0.00119626
0.00119745
0.00119509
0.00120091
0.0012022
0.00120056
0.00119911
0.00120173
0.00120177
0.00120215
0.00120163
0.00120534
0.00119651
0.00120251
0.00119683
0.00119543
0.00120129
0.0011994
0.0011995
0.00120194
0.00120324
0.0011982
0.00120194
0.00119899
0.0012041
0.001204
0.00119708
0.00120136
0.00120099
0.00120049
0.00120444
0.00119718
0.00119782
0.00119543
0.00120528
0.00120175
0.00119975
0.00120167
0.00120054
0.00120177
0.00120053
0.00120265
0.00120027
0.00120592
0.00119662
0.00119527
0.00119532
0.00119476
0.00119885
0.00119938
0.00119839
0.00120316
0.00120153
0.00120326
0.00120519
0.00120567
0.0011963
0.00119567
0.00120236
0.00119513
0.0012003
0.00120036
0.00120433
0.00119982
0.00119872
0.00120206
0.0012029
0.00120024
0.00119817
0.0011958
0.00120103
0.00119715
0.00119453
0.00120306
0.00119691
0.00119931
0.00120225
0.00119831
0.00120284
0.00119874
0.0012022
0.00120245
0.00119931
0.00119423
0.00119797
0.00119909
0.00119724
0.00119636
0.00120386
0.00119916
0.00120465
0.00119869
0.00120323
0.00119876
0.0012037
0.00120306
0.00119853
0.00119659
0.00120348
0.00120539
0.00119793
0.00120206
0.00119926
0.001204
0.00120323
0.00119601
0.00120434
0.00120588
0.00120017
0.00120461
0.00120106
0.00119586
0.0011964
0.00119888
0.00120298
0.00120391
0.00120348
0.00119782
0.00120041
0.00119508
0.00119534
0.00119564
0.00120214
0.00119994
0.00119628
0.00119994
0.00119577
0.00119466
0.00120421
0.00120073
0.00120516
0.00120236
0.00120099
0.00120378
0.00120455
0.00120587
0.00119401
0.00120439
0.00120135
0.00120588
0.00120033
0.00119975
0.00120362
0.00119673
0.00119998
0.00120481
0.0012009
0.00120414
0.00120286
0.00120103
0.00119696
0.001202
0.001195
0.00120151
0.00120193
0.00120276
0.00120469
0.00120579
0.00120323
0.00120098
0.00120514
0.00120096
0.0011942
0.00119545
0.00120435
0.00119981
0.00120414
0.00119651
0.00120063
0.00120156
0.00119438
0.00120138
0.00119835
0.00119459
0.00119987
0.00119631
0.00119548
0.00119647
0.00119576
0.00119627
0.00119451
0.00120162
0.00119738
0.00120046
0.00120234
0.00119999
0.00120043
0.00119934
0.00119549
0.00119988
0.00120424
0.00120449
0.00119724
0.0011965
0.00120078
0.00120168
0.001199
0.00119647
0.00120538
0.00119498
0.00119527
0.0011957
0.001196
0.00120145
0.00120088
0.00119462
0.00120517
0.00120274
0.00120285
0.00119476
0.00120433
0.00120521
0.00120581
0.00120431
0.00120343
0.00120016
0.00119613
0.00119878
0.00119561
0.00119437
0.00120527
0.00119762
0.00119755
0.001198
0.0011996
0.00120178
0.0011943
0.00120411
0.00120071
0.00120425
0.00119817
0.00119935
0.00119465
0.00119613
0.00120195
0.00119797
0.00120478
0.00119542
0.00120586
0.00120048
0.00120248
0.00120599
0.00119745
0.00119897
0.00119958
0.00120317
0.00120382
0.0011952
0.00119614
0.00119832
0.00119468
0.00120026
0.00119803
0.00119611
0.00119651
0.00120486
0.0012021
0.00119962
0.00120495
0.00119525
0.00120295
0.00120284
0.00120074
0.00119621
0.00120117
0.0011976
0.00119561
0.00119655
0.00120474
0.00119486
0.00119691
0.00119465
0.0011993
0.00119416
0.00120477
0.00119636
0.00119512
0.00119769
0.00119947
0.00119522
0.00120594
0.00119799
0.00119757
0.00119474
0.00119758
0.00119456
0.00120007
0.00120314
0.00120157
0.00119508
0.00119497
0.00120333
0.00120486
0.00120041
0.00119531
0.00120391
0.00119806
0.00119753
0.00120296
0.00119412
0.00119458
0.00120201
0.00120124
0.00120031
0.00120276
0.00120249
0.00120338
0.00119746
0.00120231
0.00120068
0.00119876
0.00119474
0.00120336
0.00119805
0.00120129
0.0012029
0.00119526
0.00119553
0.00120059
0.00119982
0.00120469
0.00120359
0.00120281
0.00119462
0.00119487
0.00119506
0.00120358
0.00120532
0.0012022
0.00119558
0.00120267
0.00119532
0.00119541
0.00120169
0.00119795
0.00120185
0.00120299
0.001201
0.00120288
0.00119682
0.00120282
0.00120565
0.0012044
0.00119503
0.0011984
0.00119843
0.00120222
0.00120118
0.00120347
0.00119841
0.00119647
0.00119504
0.00120326
0.00119647
0.00119866
0.00120062
0.00119675
0.0012017
0.00119981
0.00119582
0.00120338
0.00119521
0.00119753
0.00119685
0.00120037
0.0011951
0.00119886
0.00119526
0.00119535
0.00120341
0.0011975
0.00120124
0.00120557
0.00119919
0.00120234
0.0012031
0.00119919
0.00120187
0.00119532
0.00120521
0.00119625
0.00119719
0.00120357
0.00119985
0.00120323
0.00119875
0.00119728
0.00119445
0.00120208
0.00119915
0.00119942
0.00120132
0.00119471
0.00119779
0.00120327
0.00120236
0.0011955
0.00119556
0.00119511
0.00119409
0.00119908
0.00120187
0.00120268
0.00120037
0.00119531
0.00120158
0.00119552
0.00119561
0.00119518
0.0011957
0.00119602
0.00119635
0.00119781
0.0011978
0.00119661
0.00119701
0.00120472
0.00120244
0.00120067
0.00119621
0.00119654
0.00119493
0.00120497
0.00120248
0.00120069
0.00119776
0.00119599
0.00120147
0.00120586
0.00119605
0.00119709
0.00119876
0.00119489
0.00120221
0.00119883
0.00120579
0.00119883
0.00120145
0.00119585
0.00119858
0.00119593
0.0012031
0.00120445
0.00119821
0.00120223
0.00119753
0.00120037
0.00120399
0.00120117
0.00119802
0.00119759
0.00119943
0.00119907
0.00119832
0.0012007
0.00120291
0.00119909
0.00119915
0.0011955
0.00119429
0.00119748
0.00119781
0.00120184
0.00120548
0.00120523
0.00119949
0.00119689
0.00120317
0.00120311
0.00120289
0.00120292
0.00119527
0.00120218
0.00119956
0.00119655
0.00119518
0.00120388
0.0011961
0.00119596
0.00120199
0.00120473
0.0012002
0.00120243
0.00119584
0.00120544
0.00120049
0.00120216
0.00119444
0.00120371
0.00120298
0.00119544
0.0012003
0.00119791
0.00120056
0.00119879
0.00119898
0.00119617
0.00119706
0.00119425
0.00120508
0.00120184
0.00120519
0.00119596
0.00120505
0.00120354
0.00120093
0.00119928
0.00119709
0.00120302
0.00119674
0.00119477
0.00120321
0.00120205
0.00120258
0.0012017
0.00119903
0.00119869
0.00120379
0.00119781
0.00120377
0.00120347
0.00120423
0.00120007
0.00120163
0.00120541
0.00119933
0.00119472
0.0012044
0.00120157
0.00119826
0.00120596
0.00119669
0.00120183
0.00120126
0.00119865
0.00119571
0.0011943
0.00119905
0.00119621
0.00120271
0.00119844
0.0012041
0.00120281
0.00120085
0.00119612
0.00120549
0.00119718
0.00120509
0.00119669
0.00119848
0.00119505
0.00120168
0.00119617
0.00119454
0.00120268
0.00119817
0.00120193
0.00119861
0.00120153
0.00119426
0.00120493
0.00120361
0.00120295
0.00120376
0.0011986
0.00120141
0.00120091
0.00120036
0.0011973
0.00119698
0.00119942
0.00119673
0.00120365
0.00120583
0.00119436
0.00120043
0.00119504
0.00120363
0.00120587
0.0011948
0.00120527
0.00119422
0.00120221
0.0012034
0.00120041
0.00120462
0.00120479
0.00120151
0.00119565
0.00119661
0.00119619
0.0011945
0.00119528
0.0012014
0.00120528
0.00119825
0.00119893
0.00120581
0.00120535
0.00120212
0.00120586
0.0012032
0.00119804
0.00120195
0.00119693
0.00119755
0.00120216
0.00120033
0.00119894
0.00120123
0.00120301
0.001201
0.00120062
0.001201
0.00120014
0.00119499
0.00120263
0.00120595
0.00119825
0.00120566
0.00119816
0.00120464
0.00119946
0.00119896
0.00119661
0.00119551
0.00119771
0.00120271
0.00120339
0.00120233
0.00119412
0.00120412
0.00120507
0.00120325
0.00119451
0.00119854
0.00120245
0.00120275
0.00119669
0.00119723
0.00120208
0.00119973
0.00120148
0.00119684
0.00119613
0.00120396
0.0012032
0.00120521
0.00119529
0.00119619
0.00119519
0.00119988
0.00119632
0.00120475
0.00119519
0.00119453
0.00120069
0.00120327
0.00119774
0.00119615
0.00119807
0.00119652
0.00120012
0.00120488
0.00120155
0.00119522
0.00119869
0.00119466
0.00120002
0.00119918
0.00120597
0.00120374
0.00119983
0.00120473
0.00119565
0.00119868
0.00120513
0.00120501
0.00120256
0.00120142
0.00119812
0.00120523
0.0011955
0.00120277
0.00120176
0.001204
0.00119878
0.001203
0.00120402
0.00119787
0.00120063
0.00120575
0.00120059
0.00119797
0.00120143
0.00119833
0.00120308
0.00119897
0.00119991
0.00120234
0.00120567
0.00119793
0.00120405
0.00120287
0.00120545
0.00119438
0.00119828
0.00120195
0.00119738
0.00119676
0.00120253
0.00120149
0.00120109
0.00120193
0.00119457
0.00119819
0.00119942
0.00119689
0.00120258
0.00120427
0.00119738
0.00120277
0.00119565
0.00120404
0.00119566
0.00120106
0.00119839
0.00120368
0.00120005
0.00119988
0.00120452
0.00119824
0.00119939
0.00120556
0.00119451
0.00120568
0.00119627
0.00120201
0.00120104
0.0012021
0.00119833
0.00120144
0.00120373
0.00119423
0.00119501
0.0012057
0.00120182
0.00119677
0.00119884
0.00119546
0.00119722
0.00119709
0.00119798
0.00119583
0.00119818
0.00119546
0.00120461
0.00119513
0.00120516
0.00119879
0.00119457
0.00119811
0.00120283
0.00120354
0.00120054
0.00120223
0.00120472
0.00119466
0.00119764
0.00119455
0.00119635
0.00120264
0.00120266
0.00120453
0.00120099
0.00119485
0.00120507
0.0012036
0.00119743
0.00120052
0.00120582
0.00120259
0.00120407
0.0011992
0.00119965
0.00120073
0.00119723
0.00120299
0.00120005
0.00120176
0.00119769
0.00119566
0.00119971
0.00119835
0.00120346
0.00120336
0.00120202
0.0011956
0.00119426
0.00120072
0.00119761
0.00120527
0.00120577
0.00119744
0.00120361
0.00120475
0.00120117
0.00120461
0.00120532
0.00120059
0.00120274
0.00120092
0.00119431
0.00119936
0.00120176
0.00120025
0.00119847
0.00120525
0.00120395
0.00120419
0.00119847
0.00120112
0.00120447
0.0012052
0.00120202
0.00119648
0.00120185
0.00119486
0.00119888
0.001202
0.0012052
0.00120373
0.00119981
0.00120308
0.001199
0.00120566
0.00120586
0.00120437
0.00119867
0.00119946
0.00119696
0.00120341
0.00120459
0.00120496
0.0012007
0.00120119
0.00119579
0.0012048
0.0011994
0.00119647
0.0012048
0.00120315
0.00120459
0.00119742
0.00120208
0.00120197
0.00119547
0.00119889
0.0011973
0.0012026
0.0011974
0.00120475
0.00120392
0.00119868
0.00119997
0.00120234
0.00120401
0.00120132
0.0012009
0.00119791
0.00119948
0.00120257
0.00120461
0.00120265
0.00119422
0.0012021
0.00119926
0.00119925
0.0011954
0.00120378
0.0011979
0.00119695
0.00119811
0.00119851
0.00120056
0.00120074
0.00119875
0.00119878
0.00120018
0.00120189
0.00120541
0.00120267
0.0011988
0.00120398
0.00119561
0.00119473
0.00119501
0.00119597
0.00119789
0.00119762
0.00119414
0.00120048
0.00119514
0.00119576
0.00120157
0.00120431
0.00120569
0.00120085
0.00120596
0.00120064
0.00120019
0.00119797
0.00119916
0.0011999
0.00119485
0.00120465
0.00119478
0.00119923
0.00120392
0.00119873
0.00120136
0.00120382
0.00120463
0.00120517
0.00119629
0.0011971
0.00120477
0.00120112
0.00120005
0.00120135
0.00120383
0.00120038
0.00119642
0.00119945
0.00119913
0.00120559
0.00120144
0.00120234
0.00120264
0.00119816
0.0012002
0.00120068
0.00119588
0.00120074
0.00120234
0.00119912
0.00120404
0.00120278
0.00119832
0.00119945
0.00119864
0.00120331
0.00120281
0.00119916
0.00120233
0.00120534
0.00120341
0.00120247
0.00119531
0.00119868
0.00120109
0.00119951
0.0011946
0.00119674
0.00120401
0.00119419
0.00120436
0.00119494
0.00120203
0.0012
0.00119662
0.00120086
0.00119547
0.00120205
0.0012012
0.00119467
0.00119468
0.00119583
0.00119424
0.00119922
0.00120399
0.00120141
0.00120024
0.00120437
0.00119517
0.0012049
0.0011953
0.0012002
0.00119572
0.00120071
0.00119405
0.0012032
0.00120418
0.001205
0.00120584
0.00120006
0.00119726
0.00119521
0.00120009
0.00120103
0.00120315
0.001195
0.00120194
0.0012002
0.00119605
0.00120526
0.00120109
0.00119929
0.0012053
0.00120187
0.00119942
0.00120408
0.00120039
0.00120065
0.00120216
0.00119841
0.00119687
0.00120095
0.0012044
0.00119888
0.00119535
0.00119933
0.0011976
0.00119882
0.001204
0.00119884
0.00119868
0.00119833
0.00119568
0.00119712
0.00119504
0.00119915
0.00119709
0.00119757
0.0011991
0.00119543
0.00119994
0.00120248
0.00119692
0.00120342
0.00119489
0.00119873
0.00119404
0.00119665
0.00119402
0.00119627
0.00119571
0.00119722
0.0011961
0.00119566
0.00120119
0.00120481
0.00120527
0.00119665
0.00119979
0.00119851
0.00120029
0.00119718
0.00119482
0.00119924
0.00119609
0.00119431
0.00120546
0.00119917
0.00120554
0.00120315
0.00119409
0.00120216
0.00120247
0.00120174
0.00120063
0.00119662
0.00120327
0.00119674
0.00119845
0.00120469
0.00120428
0.00119883
0.00119782
0.0012013
0.00120492
0.00120491
0.0012011
0.00119799
0.00120424
0.00119931
0.00120485
0.0011944
0.00120039
0.0012026
0.00119615
0.00119804
0.00119625
0.00119786
0.00119885
0.00120058
0.00119458
0.00120063
0.0011973
0.0011969
0.00119692
0.00119585
0.00120548
0.00120523
0.00120382
0.00120274
0.00119611
0.00119832
0.00119627
0.00119401
0.0011978
0.0012024
0.0012015
0.00120052
0.00119927
0.00119745
0.00120002
0.00120314
0.00120315
0.00120091
0.00120297
0.00120175
0.00119548
0.00120005
0.00119817
0.00119511
0.00119577
0.00119638
0.00120207
0.00119918
0.00120233
0.00119708
0.00119412
0.00120039
0.00119735
0.00120535
0.00120488
0.00119871
0.0011943
0.00120206
0.00120405
0.00120566
0.00119468
0.0011994
0.00120099
0.00120224
0.00120263
0.0012018
0.00120272
0.00119849
0.00120098
0.00119539
0.00119469
0.00120576
0.00119742
0.00120114
0.00120555
0.00119623
0.00119632
0.0011981
0.00120519
0.00119869
0.00119728
0.00119582
0.00119877
0.0011985
0.00119557
0.00119922
0.0011951
0.00120138
0.00119413
0.00120088
0.00120348
0.00119682
0.00119938
0.00120083
0.00119474
0.00119996
0.00120171
0.00119666
0.00120404
0.00120565
0.00120416
0.00120007
0.00119735
0.00120296
0.00119684
0.00120549
0.00120144
0.0012012
0.00119607
0.00119508
0.00119706
0.0012043
0.00120493
0.0012024
0.0012027
0.00119676
0.00120091
0.00120373
0.00119885
0.00120586
0.00119508
0.00119785
0.00120014
0.00119473
0.00120271
0.00120068
0.00120035
0.00120396
0.00120431
0.00120347
0.00119781
0.00119943
0.00120303
0.00119532
0.00119532
0.00119724
0.0012003
0.00120567
0.00120252
0.00119774
0.0011975
0.0012042
0.00120494
0.00120167
0.00119706
0.00119506
0.00120406
0.00120102
0.00120538
0.00119473
0.00120102
0.00119742
0.00120393
0.00119629
0.00119931
0.00119872
0.00120392
0.00120212
0.00119649
0.00119782
0.00119561
0.00120206
0.00120085
0.00119604
0.00119577
0.00119971
0.0012049
0.00120063
0.0011944
0.00119465
0.00120366
0.00119942
0.00119859
0.00120348
0.00119837
0.00120039
0.00120254
0.00120446
0.00119794
0.0012018
0.0012057
0.00119491
0.00120104
0.00119897
0.00119771
0.00119717
0.00120311
0.00120594
0.00119624
0.00120337
0.00119635
0.00120591
0.00120363
0.00119909
0.00120275
0.00119998
0.00120371
0.00119828
0.00119488
0.00120109
0.00120492
0.00119633
0.00119919
0.00120299
0.00119447
0.00120536
0.00120316
0.00120071
0.00119621
0.00119998
0.00120021
0.00120593
0.00120426
0.00120555
0.00120215
0.00119884
0.00120522
0.00119975
0.00119678
0.00119876
0.00120246
0.0012007
0.00120308
0.00120595
0.00120555
0.00120042
0.00120557
0.00119539
0.00119462
0.00119765
0.00120096
0.00120037
0.00120481
0.00120049
0.00119918
0.00120051
0.00120255
0.0011942
0.00120361
0.00119571
0.00119974
0.00119708
0.00119843
0.00120194
0.00119604
0.00119735
0.00119638
0.00119634
0.00119792
0.00120456
0.00119965
0.00119885
0.00119615
0.00120563
0.00119889
0.00120413
0.00120138
0.00119852
0.00120453
0.00120342
0.00119958
0.00120377
0.00120478
0.00119915
0.00119801
0.00120116
0.00120482
0.00120242
0.00119853
0.00120282
0.00120545
0.00120051
0.00120048
0.00119773
0.00119485
0.00119618
0.00119512
0.00119956
0.00119411
0.00120498
0.00120171
0.00119402
0.00119436
0.0011965
0.00119946
0.00119553
0.0011941
0.00120272
0.00119825
0.00120337
0.00119924
0.00119924
0.00119459
0.0011946
0.00119509
0.00120113
0.00119689
0.0012041
0.00120429
0.00120556
0.00119987
0.00119664
0.00119671
0.00120044
0.00120315
0.00119817
0.00119953
0.00120167
0.00120501
0.00119594
0.00120259
0.00120093
0.0011992
0.00120461
0.00119872
0.00119615
0.0012016
0.00120149
0.00119794
0.00120364
0.00120599
0.00120577
0.00119552
0.00119679
0.00119428
0.00120129
0.00119533
0.00119889
0.00120461
0.00120058
0.00119843
0.0011965
0.00119929
0.00120547
0.00119549
0.00119965
0.00120428
0.00119452
0.0012023
0.00120575
0.0011974
0.00119561
0.00120222
0.00120491
0.00120133
0.0012048
0.00119632
0.00120305
0.00119816
0.00119902
0.00119587
0.00120383
0.0012015
0.00120286
0.00120366
0.00119481
0.00120541
0.00119997
0.00120306
0.00120291
0.00120397
0.00119588
0.00119949
0.00120142
0.00120519
0.00120402
0.00120475
0.00120099
0.00120099
0.00120426
0.00119442
0.00120463
0.00119889
0.00119444
0.00120295
0.00119586
0.00119573
0.00120127
0.00119705
0.00119789
0.00119882
0.00119888
0.00119863
0.00120132
0.001196
0.00119626
0.00119514
0.00119788
0.00120324
0.00119681
0.00120288
0.00120231
0.00120389
0.00120394
0.00119752
0.00119771
0.00120028
0.0011979
0.00120398
0.00120372
0.00120068
0.00119716
0.00120217
0.0011968
0.00119948
0.00119861
0.00120046
0.0012059
0.00120306
0.00120577
0.00119682
0.00120034
0.00119462
0.00120308
0.00120122
0.00120429
0.00120586
0.00120515
0.00119891
0.001194
0.00120049
0.00119649
0.00119663
0.00119791
0.00119515
0.00120297
0.00120298
0.00120052
0.00119806
0.00120399
0.00120063
0.00120549
0.00120471
0.00119828
0.00120056
0.00119816
0.00120147
0.00120356
0.00120295
0.00119551
0.00120387
0.0011943
0.00119897
0.00120278
0.00120338
0.00119841
0.00120294
0.00120471
0.00119691
0.00119556
0.0011967
0.0011982
0.00119745
0.00120513
0.00119462
0.00120111
0.00119595
0.00120406
0.00119601
0.00120003
0.00120599
0.00119826
0.00119456
0.00119656
0.00119877
0.001198
0.00119676
0.00120523
0.0012022
0.00120555
0.00119926
0.00120528
0.00119407
0.00120132
0.00120361
0.0011968
0.00120519
0.00120316
0.00120392
0.00120088
0.00120351
0.00119795
0.00119668
0.00119775
0.00120101
0.00120396
0.00119749
0.00119883
0.00120434
0.00120138
0.00120589
0.00119644
0.00120393
0.00120211
0.00119699
0.00119971
0.00119879
0.00120119
0.00120361
0.00119526
0.00120386
0.00120409
0.00119825
0.00119916
0.00120087
0.00120241
0.00120291
0.00120309
0.00119867
0.00119915
0.00120548
0.00120088
0.0012042
0.00119732
0.00120147
0.00120106
0.00120556
0.00119503
0.00120001
0.00120026
0.00119508
0.00120486
0.00120461
0.00119927
0.00120338
0.00119578
0.00120144
0.00119713
0.00119935
0.00120413
0.00119635
0.00119765
0.0011998
0.00119805
0.00120358
0.00120585
0.00119591
0.00119684
0.00120243
0.00119851
0.00120568
0.00120567
0.00120172
0.00120432
0.00119882
0.00120158
0.00120582
0.00120071
0.0012052
0.00120264
0.00119981
0.00120167
0.00120465
0.00119638
0.00119874
0.00120591
0.00119883
0.00120191
0.00120482
0.00120594
0.00120184
0.0011953
0.00119443
0.00120142
0.00120081
0.00120554
0.00120295
0.00120195
0.00120028
0.00119712
0.00120554
0.00120048
0.00119436
0.00120236
0.00120024
0.00119471
0.00120468
0.00119796
0.00119676
0.00119537
0.00119773
0.00119674
0.00120182
0.00119479
0.00119731
0.00119738
0.00120456
0.00119933
0.00120307
0.00120124
0.0012034
0.00119537
0.00120574
0.00120418
0.00119461
0.00119959
0.00119791
0.00120156
0.00119676
0.00120096
0.00120124
0.0012012
0.00119938
0.00119443
0.00120017
0.00119889
0.0011953
0.00119952
0.00119941
0.00120061
0.00120366
0.00120241
0.00120447
0.00119463
0.00119664
0.00119952
0.0012055
0.00120348
0.00119942
0.001198
0.00119471
0.00120289
0.00120008
0.0011964
0.00119913
0.00119602
0.00120302
0.00119842
0.0012053
0.00119421
0.00120395
0.00120152
0.00120046
0.00120181
0.00120272
0.00119513
0.00120453
0.00119417
0.00119753
0.00119616
0.00120512
0.00119482
0.00120097
0.00120165
0.00120182
0.00120438
0.00119467
0.0012038
0.00120035
0.00120233
0.00119655
0.00120052
0.00120243
0.00120548
0.00119933
0.00119502
0.00119469
0.00120155
0.00120355
0.00120229
0.00119814
0.00120536
0.00120024
0.00120545
0.00119488
0.00119648
0.0012033
0.00120497
0.00120339
0.00119755
0.00119582
0.00120417
0.00120342
0.00119725
0.00119673
0.00119785
0.00120395
0.00120387
0.00120085
0.00120086
0.00119743
0.00120239
0.00120356
0.0011993
0.00119935
0.00119959
0.00119735
0.0012021
0.00120484
0.0012049
0.00120297
0.00119713
0.00120228
0.00119558
0.00119548
0.00119629
0.00119575
0.00120102
0.00119488
0.00120387
0.00120267
0.00120511
0.00119991
0.00120186
0.00120468
0.00120046
0.00119739
0.00120571
0.00119444
0.00119791
0.00120568
0.00119838
0.00119771
0.00119545
0.00120499
0.00119563
0.00119799
0.00120477
0.0012
0.00120138
0.001201
0.00120238
0.00119435
0.00120033
0.00119438
0.00120393
0.00119808
0.00120416
0.00119695
0.00120098
0.00120525
0.00119457
0.00119465
0.00119425
0.00120218
0.00120118
0.00119537
0.00120355
0.00120141
0.00119484
0.00119483
0.00119563
0.00120347
0.00119511
0.00119685
0.00119692
0.00119526
0.0012043
0.00120238
0.0012028
0.00120181
0.0012002
0.00119792
0.00120194
0.00119541
0.00119577
0.00119424
0.00120557
0.00120564
0.00119549
0.00119961
0.00120188
0.00119748
0.00120305
0.0012007
0.00119913
0.00119721
0.00120304
0.00120478
0.00120274
0.00119888
0.00120526
0.00119707
0.0012004
0.00120546
0.00119721
0.001197
0.00120513
0.00119482
0.00119759
0.0012011
0.00119644
0.00120163
0.00120358
0.00120002
0.00120181
0.00120355
0.0011968
0.00120121
0.00119535
0.00120019
0.00120405
0.00120505
0.00119998
0.00119733
0.00120183
0.00120501
0.00120012
0.00120569
0.00119637
0.00119533
0.00119757
0.00119876
0.00119905
0.00119774
0.00120233
0.0011951
0.00119883
0.00119754
0.00119768
0.00119527
0.00120113
0.00119739
0.00119586
0.00119401
0.0011974
0.00120061
0.00120445
0.00119451
0.00120486
0.00119557
0.001204
0.00120361
0.00120501
0.00119565
0.00120006
0.00119886
0.00119608
0.0012009
0.00120127
0.00119657
0.00120024
0.00120587
0.00119988
0.00120234
0.00119894
0.00119442
0.00119751
0.00120362
0.00119816
0.001195
0.00120013
0.0011984
0.00120287
0.0012003
0.00120365
0.0012038
0.00119627
0.00119548
0.00120385
0.00120165
0.00119419
0.00120475
0.00120018
0.00120053
0.00120128
0.00120313
0.00120426
0.00119859
0.00119502
0.00120281
0.00119798
0.00120408
0.00119846
0.00120394
0.00119612
0.00119555
0.00120456
0.00119453
0.00120224
0.00120281
0.00119925
0.00119856
0.00120576
0.00119879
0.00119928
0.00119588
0.00119791
0.00119777
0.00120473
0.00119696
0.00119773
0.00119891
0.0012025
0.00119572
0.00120446
0.001195
0.00119954
0.00119436
0.00120304
0.0012024
0.00119657
0.00120216
0.00120069
0.00120421
0.0012007
0.00120482
0.00119903
0.0011983
0.00119987
0.00119707
0.00120515
0.0011996
0.00119705
0.00119917
0.00120243
0.00119883
0.00119618
0.00120428
0.00120101
0.00119848
0.00119666
0.00119663
0.00120027
0.0011992
0.0012029
0.00119485
0.00120417
0.00120216
0.00119564
0.0012043
0.0011964
0.00120129
0.00120052
0.00119595
0.00119407
0.00120326
0.00120318
0.00119905
0.00119468
0.00120103
0.00119609
0.00120274
0.00120041
0.00119704
0.001205
0.0012031
0.00120464
0.00119483
0.0011962
0.00120284
0.00120236
0.00120332
0.00120002
0.00119911
0.00120133
0.00120427
0.00120205
0.00120028
0.00119759
0.00120245
0.00119858
0.00120081
0.00120465
0.00120412
0.00120479
0.00120527
0.00120379
0.00119402
0.00119404
0.00119505
0.00119713
0.00119427
0.00119909
0.00119809
0.0012005
0.00120511
0.00119758
0.00119806
0.00120431
0.00119809
0.00119566
0.00120009
0.00120428
0.00119861
0.00120235
0.00120153
0.0011994
0.00119968
0.0012054
0.001195
0.00119736
0.00119936
0.00120105
0.00120453
0.00119963
0.00119925
0.00120295
0.00119961
0.00120433
0.0011996
0.00119998
0.00119985
0.00119675
0.00119503
0.00119481
0.00120466
0.0011968
0.00120434
0.00120254
0.00120447
0.00120526
0.00119568
0.00119873
0.00120577
0.00120174
0.00120476
0.00119979
0.00119417
0.00120147
0.00119677
0.00120033
0.0012027
0.00120129
0.00120106
0.0011992
0.00119693
0.00119915
0.00119412
0.00120131
0.0012055
0.00119515
0.00119443
0.00120463
0.00119696
0.00119411
0.00120378
0.00119569
0.00120456
0.00119514
0.00119823
0.00120112
0.00120102
0.00120201
0.00120178
0.0011992
0.00119568
0.00120302
0.0011969
0.00120181
0.00120429
0.00119501
0.00120567
0.00119438
0.00120402
0.00120403
0.0011946
0.00120055
0.00120532
0.00119786
0.00120368
0.00120122
0.00120348
0.00120359
0.00119459
0.0011974
0.00120184
0.00119988
0.00120567
0.00120298
0.00120081
0.00119759
0.00119707
0.00120464
0.00119936
0.00120379
0.00119518
0.00120432
0.00119433
0.00120479
0.0012048
0.00120029
0.00119544
0.00119613
0.00120247
0.00120398
0.00119442
0.00120309
0.00120549
0.00119811
0.00120166
0.00119812
0.0011966
0.00120343
0.00120268
0.00119735
0.00120099
0.00119905
0.0011951
0.00119429
0.00119989
0.00119734
0.00119808
0.00119745
0.00119605
0.00119879
0.00120237
0.00119644
0.001202
0.00119932
0.0011992
0.0011961
0.00119632
0.0012014
0.00119723
0.00120072
0.00120534
0.00120257
0.00120215
0.00120551
0.0012033
0.00120129
0.00120538
0.00119472
0.00119722
0.00120584
0.00120327
0.0011997
0.00120217
0.001199
0.00119856
0.00119656
0.0011986