/*--------------------------------*- C++ -*----------------------------------*\
| =========                 |                                                 |
| \\      /  F ield         | foam-extend: Open Source CFD                    |
|  \\    /   O peration     | Version:     3.1                                |
|   \\  /    A nd           | Web:         http://www.extend-project.de       |
|    \\/     M anipulation  |                                                 |
\*---------------------------------------------------------------------------*/
FoamFile
{
    version     2.0;
    format      ascii;
    class       volScalarField;
    location    "345600";
    object      aGrad;
}
// * * * * * * * * * * * * * * * * * * * * * * * * * * * * * * * * * * * * * //

dimensions      [1 -4 0 0 0 0 0];

internalField   nonuniform List<scalar> 
23248
(
0.0442318
0.0138401
0.0845141
0.0895394
0.0306325
0.0757153
0.0207595
0.0370499
0.0590768
0.0195785
0.120375
0.129867
0.0406369
0.0587949
0.0889295
0.0716776
0.0289958
0.0492865
0.00134229
0.0182731
0.045471
0.0849846
0.0885853
0.0508049
0.0359089
0.0153858
0.0129725
0.0504668
0.056413
0.0828612
0.0993154
0.117692
0.079068
0.0777636
0.0766532
0.0701514
0.00580013
0.0558446
0.0704874
0.098804
0.0498607
0.0334632
0.0413509
0.0038657
0.0705572
0.0249943
0.021079
0.0523723
0.0770605
0.0488327
0.052729
0.0565876
0.0386755
0.0568368
0.0349342
0.0423816
0.0498358
0.0693719
0.0278817
0.0399887
0.0562118
0.0631798
0.0318482
0.0629282
0.0502113
0.0186711
0.0512718
0.0704254
0.009874
0.0562825
0.0954453
0.0744293
0.0356641
0.0630091
0.0740485
0.0624845
0.0259114
0.00598281
0.039415
0.0182899
0.0151647
0.00671138
0.0536574
0.0423345
0.0735357
0.0685336
0.0771442
0.026433
0.0448752
0.0381875
0.0460089
0.0120188
0.0571111
0.0378804
0.0489656
0.0866785
0.0468001
0.0105256
0.0507977
0.0455633
0.0350135
0.0743005
0.0761645
0.0560248
0.0516312
0.0468192
0.0441265
0.104058
0.0376655
0.0431034
0.0324901
0.0582615
0.0459261
0.0882877
0.0856383
0.075433
0.0415217
0.0423435
0.122459
0.0437095
0.0381087
0.120663
0.143094
0.108072
0.0309184
0.0431792
0.0347653
0.0395311
0.0186804
0.0713946
0.0412711
0.051396
0.0776089
0.0326718
0.0261825
0.0494683
0.0952461
0.045219
0.043051
0.061777
0.0892956
0.0560333
0.0383728
0.0640381
0.0185784
0.0399781
0.017755
0.0415745
0.0158443
0.0396417
0.0238001
0.0418236
0.0988671
0.059607
0.0721026
0.0277214
0.032266
0.0951856
0.0645288
0.0454782
0.108973
0.0832963
0.00837213
0.0245633
0.0340267
0.00380015
0.0960398
0.0375642
0.0410587
0.0541825
0.0375797
0.0359848
0.0648591
0.0898014
0.0149732
0.0770941
0.0633257
0.0316848
0.0660361
0.0233135
0.0173358
0.0276811
0.0608961
0.0599936
0.0552837
0.071181
0.0284984
0.0341573
0.0366657
0.043595
0.110459
0.040827
0.043012
0.0332621
0.0319128
0.0217767
0.0206739
0.034008
0.0152349
0.0281332
0.0172475
0.0304986
0.0471954
0.0356305
0.0194536
0.0673155
0.00718028
0.0400399
0.0187526
0.00940191
0.0440006
0.0467432
0.0187757
0.0278413
0.058878
0.117275
0.0271727
0.0292752
0.0200692
0.0226243
0.0268129
0.0685091
0.0521946
0.0467776
0.0689279
0.0669409
0.0662114
0.0401139
0.0244358
0.0182165
0.0398559
0.0397931
0.0663934
0.0379627
0.000214033
0.0115751
0.0196626
0.00644027
0.0127997
0.0227584
0.0497292
0.0196762
0.0482163
0.0366485
0.117883
0.0420906
0.0293865
0.0159796
0.0430922
0.0411977
0.0908398
0.0597479
0.0130413
0.0315857
0.0290395
0.0197907
0.0126946
0.0308179
0.0123574
0.0774314
0.0912046
0.0347286
0.0601927
0.0288206
0.0862957
0.0373143
0.0105696
0.0459935
0.103515
0.122522
0.0152056
0.0610779
0.0172489
0.0312357
0.00698051
0.0278478
0.0190937
0.064548
0.0374489
0.0251109
0.0539366
0.0795269
0.0388981
0.0218344
0.0476076
0.0398235
0.0264971
0.0367508
0.0198529
0.0248172
0.0433008
0.0164901
0.0694381
0.0945476
0.0497041
0.0329608
0.0606653
0.0183777
0.0280574
0.0277797
0.0480528
0.0682403
0.0708404
0.0387042
0.0644949
0.141672
0.00043025
0.00829062
0.0212058
0.0616189
0.0551729
0.0227243
0.0499097
0.0376796
0.0135732
0.0353792
0.0351845
0.0452624
0.0796378
0.0541868
0.0308388
0.0541083
0.0520495
0.0228823
0.0225757
0.0385693
0.0149353
0.014271
0.0257044
0.00447967
0.0402502
0.0160959
0.037614
0.0844173
0.0907265
0.0432097
0.0300078
0.0463756
0.0333077
0.0148095
0.0915302
0.120617
0.0448854
0.07462
0.0512496
0.0333213
0.0143799
0.0649981
0.0567209
0.0635119
0.0726116
0.0413565
0.00583799
0.0220841
0.024637
0.0432523
0.0528601
0.0190951
0.110507
0.0537568
0.0230989
0.0428177
0.0260828
0.0229777
0.0544084
0.0204539
0.0497487
0.030039
0.0791813
0.0307429
0.0228955
0.0411993
0.0342236
0.0290479
0.0070602
0.0402024
0.0545782
0.0364646
0.027506
0.0217092
0.0365509
0.0072266
0.0368479
0.0398365
0.0720901
0.0282957
0.0401658
0.0025804
0.0259113
0.0522416
0.0945268
0.0168035
0.0354881
0.069292
0.0422796
0.0728
0.00524679
0.0214178
0.0166511
0.0472369
0.0395182
0.0589041
0.0582484
0.0160883
0.0507974
0.0159158
0.0199963
0.0657189
0.00744321
0.0276134
0.034059
0.0135704
0.0263644
0.0422964
0.0013212
0.0359804
0.0592048
0.0288654
0.0282684
0.0544605
0.0203341
0.0371733
0.0607626
0.0266623
0.0496531
0.0201955
0.0185165
0.0268326
0.0118923
0.0449554
0.0374378
0.0717171
0.0265057
0.0670819
0.0773939
0.0498968
0.0451022
0.0440815
0.0128754
0.0762019
0.0450031
0.0232542
0.0505441
0.0389566
0.0570891
0.0547203
0.0113067
0.0823272
0.0713502
0.0195084
0.0354225
0.10452
0.053484
0.00581083
0.0168339
0.0334618
0.0494773
0.0491924
0.0272396
0.0411775
0.017187
0.0601171
0.0268461
0.0373994
0.0282849
0.0313902
0.0519198
0.0507795
0.00930532
0.0801232
0.0728164
0.05507
0.0620301
0.0108625
0.0310488
0.052905
0.0101835
0.0145725
0.026917
0.0295988
0.00568057
0.0237379
0.0173465
0.0518549
0.0777342
0.0451288
0.0163661
0.0204716
0.0526829
0.01988
0.0116601
0.0217045
0.0146927
0.0442937
0.0290987
0.00851112
0.0572422
0.0107168
0.0627147
0.0389252
0.00496843
0.0116506
0.0415163
0.0563447
0.00481791
0.0416559
0.0886314
0.0370816
0.0190255
0.0172415
0.00993289
0.0156474
0.0173333
0.0737353
0.0362225
0.0955379
0.0972641
0.0575635
0.105408
0.0414099
0.0698958
0.03102
0.0459228
0.0469218
0.0270611
0.0379164
0.0519781
0.110336
0.0810415
0.0503101
0.0752479
0.0156559
0.048351
0.0414435
0.0426276
0.0563584
0.0341119
0.042073
0.0416702
0.04456
0.0601636
0.0634506
0.0528539
0.0491765
0.0553751
0.0848913
0.0589435
0.0286554
0.0770824
0.00304991
0.0546139
0.0419752
0.0580601
0.0380568
0.0388041
0.105803
0.0776287
0.0418579
0.00951856
0.0525785
0.106681
0.0692738
0.0501639
0.0726706
0.0827134
0.0473922
0.130797
0.0410256
0.0422658
0.0426358
0.0925637
0.0635519
0.0708639
0.0380479
0.0238324
0.0451896
0.00750452
0.08257
0.118767
0.100958
0.0628828
0.0616181
0.0320098
0.0570937
0.0861484
0.0350564
0.0601174
0.0339886
0.0556583
0.0577438
0.0304246
0.0908587
0.0357007
0.00941595
0.0420545
0.0497989
0.0492984
0.0391229
0.0544513
0.0447445
0.0931608
0.0383458
0.0542458
0.00563637
0.0407142
0.0627883
0.0258981
0.0729266
0.125828
0.0916883
0.055853
0.117653
0.032764
0.0181437
0.0349551
0.0696963
0.0424921
0.0624939
0.0670036
0.0398373
0.0448332
0.031346
0.0455262
0.0500051
0.070331
0.0602402
0.0145308
0.0396418
0.0208084
0.0654477
0.0664655
0.043915
0.0432195
0.044496
0.0672595
0.0325407
0.0814335
0.0444287
0.0411209
0.0251771
0.0495021
0.0363683
0.0957227
0.0783887
0.0290899
0.0486171
0.0402752
0.0771337
0.038334
0.0256614
0.0486278
0.0433254
0.0634312
0.06315
0.0765395
0.0449397
0.0261169
0.0298478
0.0408968
0.0226471
0.0455348
0.0446078
0.043874
0.030368
0.0599872
0.0582101
0.0135734
0.019982
0.0440796
0.0233753
0.0878254
0.109527
0.0536184
0.0696072
0.010237
0.0274073
0.0416554
0.0993341
0.103392
0.0327303
0.0317351
0.0857628
0.0890088
0.0598317
0.0696093
0.0545369
0.0444363
0.0603203
0.0431832
0.0379788
0.0451266
0.0958918
0.0612932
0.0754911
0.0532932
0.0381857
0.0407473
0.0462015
0.0634634
0.0332526
0.0595528
0.0740111
0.0494267
0.0511847
0.0590784
0.0685941
0.0191502
0.0281119
0.0487797
0.0406705
0.112905
0.0376307
0.0499727
0.105899
0.0757228
0.0221647
0.0333121
0.0802167
0.0618002
0.0740142
0.0474884
0.0718444
0.0534519
0.0549723
0.0520131
0.025468
0.082542
0.0344207
0.0465816
0.0765214
0.0630653
0.0271362
0.0796286
0.0397227
0.0570074
0.00884507
0.0703712
0.0453375
0.0199502
0.0741121
0.0579706
0.031994
0.0611479
0.0502913
0.0362506
0.039379
0.0149612
0.0710834
0.0356517
0.0636616
0.0647805
0.0769976
0.0325074
0.0617336
0.0357715
0.0439014
0.00661985
0.0157146
0.070917
0.0149263
0.0777183
0.0642649
0.0589372
0.0709279
0.0844158
0.0912732
0.0527925
0.0287097
0.0723564
0.0579556
0.0551034
0.0636983
0.0665675
0.0494075
0.0156566
0.0518885
0.0888897
0.0463132
0.0634512
0.0565472
0.0470245
0.0509229
0.0561778
0.0920983
0.0647822
0.0267075
0.0684937
0.0525898
0.0492335
0.0760899
0.0889306
0.0502797
0.0353852
0.0160499
0.0616587
0.0866711
0.046224
0.0589967
0.077706
0.0170284
0.0633407
0.0798796
0.057831
0.0453947
0.0415451
0.0277284
0.0510425
0.0386702
0.0168723
0.0698694
0.0409183
0.0199933
0.0622335
0.0384844
0.111685
0.0568194
0.0342526
0.0500011
0.032778
0.014497
0.0643644
0.048978
0.0248128
0.0420871
0.0214174
0.0305478
0.0319063
0.0259341
0.0377345
0.0269366
0.0765028
0.0570919
0.0483039
0.081625
0.0326486
0.04746
0.0521952
0.0688221
0.0415617
0.0411827
0.0615572
0.0148066
0.0175643
0.0560146
0.0304208
0.0473167
0.0418623
0.0288607
0.0484858
0.0531483
0.0262021
0.0614642
0.0660474
0.0556488
0.0486787
0.03214
0.0562134
0.03717
0.0375063
0.0302702
0.0280266
0.0406978
0.0264103
0.0393705
0.0383556
0.0581357
0.0314187
0.0500531
0.0684347
0.0647569
0.0677601
0.0538973
0.0591434
0.0199723
0.0638347
0.0690118
0.0501505
0.0207496
0.0528989
0.0363557
0.0414252
0.0668666
0.0258471
0.0143831
0.0317478
0.0298988
0.0367486
0.0587016
0.0525924
0.041454
0.0415834
0.0308051
0.0688258
0.0836367
0.0645886
0.0613982
0.0401652
0.0687311
0.0302344
0.0712702
0.082373
0.0523859
0.054233
0.0318566
0.027858
0.0707152
0.0495086
0.0253002
0.0431879
0.0189079
0.0371902
0.0428694
0.0451353
0.0729393
0.0825528
0.0319675
0.0422261
0.0546072
0.0713508
0.0583853
0.0483994
0.0422463
0.0492233
0.0390565
0.0279209
0.034608
0.0472762
0.0451978
0.0407881
0.0325295
0.0114649
0.0306023
0.072112
0.0615823
0.0511286
0.0497788
0.0666595
0.0531648
0.0540047
0.0494534
0.0355828
0.0411526
0.0628976
0.0399465
0.0513795
0.0437223
0.0630766
0.0507959
0.0473002
0.0631443
0.0181
0.0820216
0.0405399
0.0348137
0.033292
0.0418598
0.0280942
0.0314466
0.0451051
0.0359786
0.0634834
0.0565539
0.0213866
0.0370745
0.0449222
0.0419176
0.0263102
0.0217032
0.0271075
0.0301902
0.0801706
0.0470574
0.0364357
0.046686
0.0401992
0.054572
0.0440422
0.0310433
0.0651684
0.0575556
0.03591
0.0739905
0.0551713
0.0669518
0.0158415
0.0457768
0.0589903
0.0340474
0.0574779
0.0640853
0.0175999
0.0633775
0.00773281
0.0450881
0.0314104
0.0395236
0.0357308
0.0873066
0.0900259
0.0591945
0.0488221
0.0294197
0.0523585
0.0396853
0.029551
0.0442115
0.0563961
0.0596574
0.0743255
0.030328
0.067358
0.0164352
0.0767815
0.0745216
0.0223193
0.0667207
0.0441951
0.0829557
0.0529555
0.0524668
0.0749494
0.0551717
0.042449
0.0371807
0.0760933
0.0450051
0.0498742
0.0295242
0.0448377
0.039477
0.0415604
0.0825566
0.0947681
0.0162094
0.0617954
0.0360915
0.0387109
0.0195928
0.0413599
0.0365075
0.0419313
0.0279642
0.0245234
0.0255582
0.073848
0.0614733
0.0541344
0.0172329
0.0435986
0.0792351
0.101913
0.073392
0.0315355
0.0745522
0.0604783
0.0360319
0.0188138
0.0569766
0.0346234
0.0649109
0.0380638
0.0203049
0.045078
0.0806446
0.0633671
0.0710809
0.0379307
0.0482806
0.0669954
0.0515977
0.0281941
0.028369
0.0388526
0.079214
0.0490826
0.0219198
0.0281339
0.0371348
0.0437681
0.0520037
0.0345253
0.0604063
0.0636037
0.0760734
0.00727518
0.0297554
0.0406249
0.0346882
0.0926496
0.0273185
0.0385228
0.0572114
0.0457578
0.0683368
0.045788
0.0589429
0.0391492
0.0521862
0.0598758
0.0522941
0.0206616
0.0480128
0.0504253
0.0923222
0.0364876
0.083432
0.0775592
0.0532143
0.0857179
0.0471507
0.0564373
0.0375083
0.0533166
0.0131862
0.0418258
0.0573777
0.0913917
0.0470207
0.0549829
0.075705
0.045765
0.0400069
0.0768961
0.04131
0.0613808
0.0961072
0.0676532
0.0803561
0.0626597
0.0724317
0.0510034
0.0539166
0.0118095
0.0423544
0.0879662
0.0668679
0.0759419
0.0655913
0.0489543
0.0473905
0.0363445
0.0471156
0.0749676
0.0595675
0.0662941
0.0415363
0.0422119
0.0622001
0.0602876
0.0210591
0.0399136
0.0365757
0.0403529
0.0473241
0.0204779
0.0431903
0.0474069
0.0189838
0.0448803
0.03605
0.0533872
0.0629498
0.0618949
0.0526013
0.0761794
0.0291632
0.0214384
0.053183
0.0244812
0.0680794
0.0235325
0.0659099
0.0270192
0.024531
0.0404763
0.0415573
0.058456
0.068046
0.0362743
0.044463
0.06007
0.0546648
0.0334519
0.0624581
0.0218799
0.0471234
0.0918403
0.0669449
0.0534558
0.0397165
0.0631239
0.0774426
0.0660723
0.0419541
0.0582606
0.0354798
0.0441714
0.0290022
0.0383435
0.0530709
0.0405321
0.0741195
0.0319939
0.0451859
0.0562077
0.0886819
0.0290076
0.0621366
0.0251054
0.053437
0.0239982
0.0493872
0.0555982
0.0616712
0.0466563
0.0775192
0.0772101
0.0535942
0.0514974
0.0611375
0.0474268
0.0195604
0.0228157
0.00754559
0.0397834
0.0492837
0.0441936
0.0570538
0.0668159
0.0675147
0.0362811
0.0814615
0.0386761
0.0848054
0.0303502
0.0635193
0.0543915
0.0417335
0.0798255
0.0541656
0.0266087
0.0433924
0.0685449
0.0564042
0.0789193
0.0528418
0.0680709
0.0718601
0.101455
0.0536016
0.0243245
0.0839533
0.0617718
0.0874367
0.0317836
0.058841
0.0239909
0.0551641
0.0590238
0.0229478
0.0443586
0.033504
0.0435256
0.065406
0.0491583
0.0618687
0.0461426
0.0505048
0.0638269
0.0612812
0.116471
0.0542361
0.0418903
0.0323995
0.0779413
0.0194592
0.0463655
0.0851126
0.0225282
0.0653029
0.0367111
0.0290822
0.0519373
0.077522
0.0371128
0.0700342
0.0121103
0.0496615
0.0530596
0.0966787
0.0629444
0.0440326
0.0386097
0.0518988
0.0262267
0.0255554
0.0628671
0.0397239
0.0116867
0.0192309
0.0757358
0.0565547
0.0594239
0.0318644
0.0311566
0.0115014
0.0213151
0.0565746
0.0281931
0.0848292
0.0322277
0.050641
0.0737686
0.0670023
0.0348218
0.0609021
0.0435387
0.0547207
0.0344181
0.0505649
0.067518
0.0705294
0.0614957
0.03166
0.0400353
0.0241931
0.0296992
0.057674
0.0974526
0.0798714
0.0189225
0.0618106
0.0528316
0.0739011
0.0813654
0.0305433
0.0440578
0.0286501
0.0270062
0.027614
0.0249908
0.0224427
0.050706
0.041476
0.013364
0.091304
0.0664664
0.0534356
0.0574155
0.0647756
0.0652606
0.0479104
0.0621777
0.0664821
0.0119799
0.0259242
0.058528
0.0271537
0.0346306
0.0156723
0.0274046
0.0395738
0.0308236
0.0495564
0.0255549
0.0625813
0.0858864
0.0288171
0.0790561
0.00900117
0.0191402
0.0829712
0.0284997
0.0341108
0.0649078
0.0729235
0.0609841
0.0595286
0.0620795
0.0454397
0.04233
0.0473276
0.0137617
0.0430539
0.0187024
0.0565241
0.0278572
0.0958279
0.036019
0.0575339
0.0669771
0.0467761
0.0346194
0.088766
0.0656215
0.055935
0.0778853
0.0824998
0.0535188
0.05035
0.0286515
0.0279506
0.0664338
0.0384843
0.0273833
0.0884091
0.0405852
0.0695571
0.0349539
0.023787
0.0307219
0.0362905
0.0316822
0.0164671
0.0395291
0.0538137
0.0390375
0.031494
0.063272
0.0436031
0.0384512
0.0200917
0.0616155
0.076464
0.0743496
0.047658
0.0331367
0.0448132
0.0279415
0.031426
0.0459473
0.0314395
0.0135024
0.0268663
0.0457827
0.0636143
0.0370717
0.066073
0.0220244
0.040426
0.0250951
0.0354391
0.065803
0.0368341
0.0504097
0.0438425
0.00629007
0.0640176
0.0425444
0.0122721
0.0247938
0.0409613
0.0341549
0.0196344
0.0380903
0.0264544
0.0421912
0.048119
0.0662685
0.00967906
0.0197957
0.0495456
0.0818446
0.0809823
0.0233841
0.0392879
0.114191
0.0693169
0.0250327
0.0226231
0.0361133
0.0219039
0.0110009
0.0420551
0.0455223
0.0499897
0.0813331
0.0602928
0.0418976
0.041006
0.0343069
0.0991032
0.0289459
0.0311532
0.0254395
0.030562
0.0403811
0.0309634
0.019003
0.029899
0.0256938
0.0509115
0.0541315
0.0312778
0.00770443
0.061222
0.0723007
0.0362259
0.060945
0.032713
0.0326492
0.0323414
0.0962408
0.0360992
0.0546074
0.0471562
0.014708
0.0288551
0.0339102
0.0316226
0.0479357
0.0563973
0.030453
0.00977348
0.0516787
0.0466034
0.032186
0.021639
0.0220071
0.02188
0.0298531
0.0422991
0.0353672
0.0311532
0.0163567
0.0578933
0.0261479
0.0162779
0.0289695
0.0790358
0.0465832
0.0108549
0.0391324
0.0746601
0.0409075
0.0195793
0.0671151
0.0856898
0.0356276
0.0870092
0.0688237
0.0129301
0.0504903
0.0955802
0.0817953
0.0541525
0.014177
0.0612964
0.0493763
0.0503994
0.0178295
0.0362196
0.0655978
0.0279266
0.059988
0.0652939
0.0108764
0.0541435
0.0198872
0.0344131
0.0373017
0.0186909
0.0606738
0.0138677
0.0222492
0.0117977
0.0114889
0.0156163
0.0312645
0.023276
0.0443553
0.037738
0.0600835
0.0503259
0.0531474
0.0661125
0.0348853
0.0141211
0.0495327
0.0240437
0.0638752
0.0263089
0.0363193
0.0718234
0.0403699
0.0343373
0.0265022
0.0261126
0.024713
0.0365147
0.0412977
0.0471912
0.0546772
0.0358427
0.0693121
0.0368275
0.0300139
0.0172087
0.0236308
0.0327813
0.0445789
0.0200264
0.0385331
0.0339398
0.0329889
0.0690635
0.0941214
0.0515588
0.0359592
0.0615384
0.0210453
0.0593188
0.043295
0.0573814
0.0253644
0.0224654
0.0610582
0.0623457
0.0616408
0.0414911
0.0390876
0.048647
0.0470355
0.0503636
0.0401465
0.0883202
0.0645106
0.0423926
0.0509486
0.0395006
0.0419729
0.0682174
0.0271508
0.0688051
0.0183938
0.00883797
0.0222974
0.0115145
0.0367141
0.0225904
0.0460531
0.0444089
0.0474849
0.0657919
0.0967177
0.0139365
0.0470028
0.0333847
0.0501692
0.0493207
0.0458687
0.0562629
0.0388396
0.089511
0.0747187
0.0258605
0.0288923
0.0818358
0.048445
0.11974
0.0245095
0.0773505
0.0480945
0.071181
0.0330737
0.048836
0.0356355
0.0514538
0.0453632
0.0329626
0.0531284
0.0399626
0.0196248
0.0605364
0.0617125
0.0166278
0.0251616
0.0375404
0.0589932
0.0127885
0.0363235
0.0259646
0.00413999
0.0207353
0.026957
0.0343047
0.0577212
0.0622068
0.0184425
0.0398811
0.0302513
0.0937915
0.0390664
0.0361929
0.00409534
0.0565854
0.102385
0.0261795
0.0485972
0.06204
0.0702755
0.064362
0.0217659
0.0270577
0.0377014
0.0436133
0.0739046
0.047348
0.0190201
0.0268047
0.0245583
0.0189234
0.0321902
0.0071971
0.0250039
0.0505826
0.0122292
0.037436
0.0264878
0.0377376
0.0350357
0.0413255
0.0701933
0.0359896
0.031423
0.0353847
0.0522154
0.0422649
0.0296064
0.0336016
0.0126399
0.0734865
0.0330683
0.0718714
0.0443782
0.0896446
0.0646673
0.039223
0.038538
0.0897016
0.0466965
0.0789068
0.0188429
0.00829037
0.0454813
0.0541987
0.0311574
0.0392304
0.0300761
0.0159432
0.0368187
0.0296831
0.0181859
0.0360202
0.0295709
0.0510199
0.0248447
0.0298467
0.0837412
0.0727472
0.026294
0.0408291
0.0281685
0.0392245
0.0321755
0.0400461
0.02861
0.0561364
0.0216083
0.0503436
0.0733731
0.0572501
0.0546249
0.0729259
0.0701371
0.0194411
0.0328515
0.135308
0.0112177
0.0261138
0.0410253
0.0397564
0.0573025
0.0368381
0.0433657
0.0484188
0.0127926
0.0212028
0.0218774
0.0118611
0.0362869
0.0521564
0.0572437
0.0479064
0.0248355
0.0364037
0.0251002
0.0415057
0.0402455
0.0165784
0.0318844
0.0613802
0.0511618
0.0415397
0.0624434
0.0578067
0.0424845
0.0790189
0.0426192
0.0352976
0.0665207
0.0554867
0.101015
0.0395917
0.0430302
0.0742544
0.0251858
0.0345529
0.0327875
0.0414072
0.0644666
0.0427198
0.0428037
0.0226505
0.00589343
0.0233119
0.00631953
0.0178258
0.0385022
0.0112449
0.043188
0.031261
0.0418926
0.0815367
0.0301578
0.0570825
0.0360697
0.0369862
0.00947687
0.0540801
0.041114
0.0288784
0.0566232
0.0372485
0.0290754
0.0252406
0.0369182
0.040838
0.0268391
0.0678732
0.0475699
0.12134
0.0292968
0.0458806
0.0549689
0.0246989
0.0136698
0.0301899
0.0562921
0.031208
0.0340699
0.0349702
0.00186627
0.0415076
0.0325264
0.0184964
0.0238283
0.0443998
0.0436119
0.0210304
0.0480305
0.0193795
0.0324704
0.0463819
0.0301591
0.0758885
0.0356541
0.0367918
0.0750409
0.0070967
0.0715314
0.0678688
0.07305
0.0298499
0.0356111
0.03182
0.0589408
0.0770313
0.0529882
0.0339992
0.0456928
0.0925339
0.0576512
0.0225919
0.0651328
0.0193247
0.0513826
0.0737962
0.00451566
0.0664162
0.050798
0.0369407
0.0275543
0.0105897
0.0199704
0.0455842
0.0211922
0.0322437
0.0114533
0.0699565
0.0844451
0.0498319
0.0212312
0.0451144
0.0581122
0.0334378
0.0427312
0.0328451
0.042488
0.0793879
0.0147174
0.0238336
0.0158822
0.0734419
0.102457
0.064014
0.0598744
0.103425
0.119281
0.128052
0.0259593
0.0121531
0.0519584
0.0595047
0.0248147
0.0506305
0.0234536
0.0524677
0.00621033
0.0254876
0.0115493
0.0160561
0.0370067
0.0417738
0.0362956
0.00428335
0.010468
0.0492065
0.0641428
0.0241576
0.028307
0.0584194
0.0245737
0.0461582
0.0515473
0.0362108
0.042176
0.0313203
0.0375238
0.0300841
0.0255843
0.0359149
0.0579645
0.0320073
0.0784861
0.0525881
0.118436
0.0895727
0.0215787
0.032934
0.05483
0.0290237
0.054931
0.0577702
0.027042
0.049261
0.0243661
0.00613682
0.0138699
0.04036
0.000923634
0.0221824
0.0240403
0.0366596
0.0262621
0.0357753
0.0402736
0.0478836
0.0384865
0.0278618
0.0223821
0.0558846
0.0353318
0.0349685
0.0508743
0.0574196
0.0226614
0.0643626
0.00951932
0.0501524
0.0355738
0.0664568
0.0899061
0.0552318
0.100384
0.075758
0.0150436
0.0453254
0.0283538
0.0120049
0.054686
0.0279762
0.0221775
0.0725942
0.0254492
0.0312153
0.0196076
0.025708
0.0188368
0.0104006
0.00904031
0.0560484
0.0225977
0.0252774
0.0582853
0.0300394
0.0208071
0.0480967
0.0215102
0.0250421
0.0443987
0.0385958
0.029919
0.042322
0.0396377
0.0350061
0.0215371
0.00874134
0.0367598
0.0719634
0.0883045
0.0418128
0.0570791
0.0299091
0.0198592
0.0159197
0.0272107
0.0358675
0.0161441
0.0451471
0.059013
0.039165
0.00644515
0.0322265
0.0523525
0.0249388
0.0346423
0.00687525
0.0202503
0.015188
0.00532548
0.012946
0.033463
0.0170112
0.0417415
0.0312906
0.0513971
0.0260259
0.0284429
0.0350979
0.0645455
0.104064
0.0446796
0.0283196
0.0795447
0.078379
0.0495017
0.0375965
0.0359035
0.0899254
0.0367697
0.044531
0.0230339
0.0211672
0.0408868
0.0480216
0.0431604
0.0354781
0.0325669
0.0325628
0.0237078
0.00618443
0.030404
0.0309293
0.0536704
0.0245521
0.0255053
0.0219479
0.0491018
0.0288896
0.0231306
0.0254434
0.0441751
0.0289406
0.029171
0.0268125
0.0671647
0.0539253
0.0278109
0.0973587
0.0282651
0.0137763
0.0623389
0.00723822
0.0452189
0.0789069
0.103509
0.0608131
0.00650885
0.0212037
0.0240532
0.0349482
0.0270582
0.028562
0.0564305
0.0623078
0.0906053
0.0475476
0.0430773
0.051042
0.0684262
0.0530117
0.0318404
0.0735138
0.0290164
0.0437746
0.0230144
0.0280964
0.0347555
0.0485146
0.028754
0.0343813
0.0293176
0.010236
0.0474017
0.0508063
0.0379392
0.0327244
0.0529326
0.0491739
0.0134112
0.0362666
0.0467273
0.035587
0.0227149
0.0510577
0.0467658
0.0243907
0.0213814
0.0495053
0.0179933
0.0269074
0.0304276
0.0335513
0.0574611
0.026806
0.0445273
0.0545007
0.0234527
0.0230309
0.0521435
0.050218
0.0405718
0.0312491
0.0323939
0.0358824
0.032684
0.0496283
0.0136246
0.0345824
0.0228091
0.0317003
0.0368712
0.0350122
0.0627607
0.0299613
0.031767
0.028511
0.0184726
0.0928958
0.0874932
0.0589103
0.0336239
0.0664383
0.00638975
0.0197811
0.0470352
0.0254895
0.0423388
0.0478067
0.0288356
0.0808666
0.0711448
0.0338069
0.0385435
0.0209094
0.014055
0.0287294
0.0562864
0.0272444
0.0443328
0.057588
0.0289011
0.0333301
0.0318848
0.0686205
0.0257094
0.0484918
0.0405781
0.0510786
0.0835217
0.0171281
0.0542103
0.0172478
0.0262457
0.044151
0.0387147
0.047542
0.0277754
0.0330511
0.0332859
0.049535
0.0150495
0.0297491
0.0202097
0.0299469
0.0535586
0.0473331
0.0395896
0.0311391
0.0341075
0.0396866
0.0409283
0.0502005
0.0151555
0.0533413
0.0363935
0.0325652
0.0143277
0.0301018
0.042396
0.029529
0.0471373
0.0391286
0.0330106
0.0470216
0.0378445
0.0382413
0.00977509
0.0373827
0.0592088
0.00918118
0.0862979
0.0419875
0.0837108
0.0734476
0.022621
0.0569279
0.00707
0.0400436
0.045976
0.00921896
0.0167948
0.00704284
0.0464182
0.0407569
0.0631338
0.0171345
0.0370905
0.0137212
0.0428269
0.0621109
0.0605607
0.0463283
0.0712226
0.050291
0.0197895
0.0434716
0.0423416
0.0309874
0.0356827
0.032307
0.0389828
0.0417795
0.0301969
0.0406589
0.0129401
0.0416228
0.0516223
0.037217
0.0492609
0.0821947
0.0186672
0.0108464
0.0318028
0.052759
0.0454521
0.0303658
0.063956
0.0516824
0.0548706
0.0537555
0.0664929
0.0326558
0.0352978
0.0239439
0.0232338
0.0312492
0.0272501
0.025402
0.0413845
0.0511452
0.019193
0.0185727
0.0537241
0.0203432
0.024156
0.0498595
0.0246482
0.0411563
0.058631
0.0111305
0.0796823
0.0438236
0.0320022
0.0206257
0.0343206
0.0258313
0.0231627
0.0264709
0.0152504
0.0691307
0.0383667
0.0485136
0.0458192
0.0521995
0.086918
0.0511129
0.0247592
0.0438502
0.0663821
0.0229226
0.0321092
0.0772453
0.0777492
0.0394067
0.0224131
0.00485029
0.0208389
0.0276157
0.0241147
0.0348255
0.0161875
0.0131961
0.090016
0.0220079
0.0220415
0.0395353
0.0118447
0.0321296
0.0372863
0.0673422
0.017864
0.0461219
0.0212989
0.0219431
0.0186913
0.0315877
0.0713113
0.0393641
0.0103947
0.0234355
0.0611494
0.0507545
0.0133614
0.0536834
0.042366
0.0426264
0.012002
0.0368203
0.0655364
0.0866374
0.00323533
0.0397055
0.047125
0.0332728
0.0281767
0.044159
0.0226341
0.0355426
0.038234
0.0533732
0.0345883
0.026948
0.0539728
0.0163906
0.0630654
0.045899
0.0331692
0.0445465
0.0322939
0.0594069
0.0562686
0.0348252
0.0445021
0.0364977
0.0553462
0.0526094
0.050393
0.085705
0.0482184
0.0347644
0.0457347
0.040217
0.0341903
0.0253543
0.0483351
0.0239062
0.0525264
0.0144742
0.0250588
0.0826352
0.0244833
0.0378193
0.0568687
0.0291478
0.0121983
0.0336207
0.062305
0.0558956
0.0292177
0.0384636
0.0391485
0.0562751
0.0477256
0.0359933
0.041312
0.0316463
0.0486846
0.028294
0.0302211
0.00993912
0.0268281
0.0180481
0.0252851
0.0873039
0.0575521
0.024898
0.0482952
0.0259984
0.0413662
0.0478856
0.0575719
0.0414923
0.0462251
0.0609554
0.050641
0.0439186
0.0152959
0.0463829
0.0326706
0.0548474
0.0197666
0.0762424
0.0477438
0.038995
0.0578375
0.0269787
0.038526
0.0430344
0.0426832
0.044838
0.0341532
0.0355235
0.0254181
0.0505032
0.0184747
0.0731766
0.0181808
0.068629
0.0800537
0.01156
0.0461012
0.0327915
0.046935
0.025204
0.0395086
0.019314
0.0292117
0.0267191
0.0418215
0.0515469
0.0349339
0.0394784
0.0140563
0.0328622
0.03357
0.0369292
0.011995
0.100234
0.0577877
0.0703829
0.108337
0.0471912
0.0343339
0.0325097
0.0428128
0.0163202
0.0204181
0.031087
0.0429656
0.0363451
0.0403345
0.0351425
0.0655674
0.0609223
0.0221468
0.0227402
0.0521325
0.0641463
0.0243861
0.0756508
0.0362964
0.0455811
0.045442
0.0397815
0.0330292
0.023947
0.0506093
0.0229851
0.0253972
0.0324034
0.0266816
0.0216854
0.0680861
0.02505
0.0337148
0.0379648
0.075477
0.0868298
0.082079
0.0702583
0.0862904
0.0290292
0.0505425
0.0431262
0.0330229
0.0638088
0.0326815
0.00992887
0.0411921
0.076034
0.0877203
0.0275964
0.0582552
0.0415065
0.0361255
0.0370489
0.0578822
0.0304773
0.0203291
0.0338024
0.0442425
0.0553219
0.0331783
0.0574681
0.0818564
0.0274381
0.0631998
0.036942
0.0517722
0.0508841
0.00603812
0.0735035
0.0266169
0.0530016
0.014594
0.0106653
0.0244763
0.0275157
0.020658
0.0258712
0.0424341
0.0304832
0.0462811
0.0309541
0.0364766
0.0567101
0.0602439
0.0604896
0.0545259
0.0797208
0.05615
0.07741
0.0361102
0.0226942
0.0669093
0.0284845
0.0240466
0.0393267
0.0344895
0.0303914
0.0309152
0.0506999
0.0294582
0.0364091
0.0616292
0.0437327
0.0177802
0.0488859
0.0443267
0.0567754
0.110189
0.107865
0.0667178
0.0658955
0.0417459
0.0117966
0.0710412
0.0398457
0.0124866
0.0553127
0.031264
0.0193395
0.00823011
0.0249887
0.0646863
0.0577307
0.0346876
0.0257034
0.0618242
0.030538
0.0894336
0.0577861
0.0383438
0.0479453
0.0207914
0.039586
0.0229551
0.0300665
0.0134577
0.00986861
0.0139414
0.0158999
0.031369
0.0168566
0.0391579
0.0243172
0.0195776
0.025323
0.0764587
0.0693822
0.0506385
0.0467898
0.0357752
0.0256239
0.0475831
0.0909522
0.0403149
0.0677655
0.0540794
0.0309879
0.0289504
0.0437436
0.0443674
0.0301578
0.0243654
0.0270039
0.0571824
0.0571974
0.0648824
0.0434383
0.0277537
0.0796319
0.032606
0.049043
0.0660472
0.0341949
0.0572144
0.024235
0.0234757
0.0554751
0.0136133
0.0711237
0.0545182
0.0292417
0.0607633
0.033463
0.097019
0.048932
0.0266958
0.0287369
0.0564661
0.0574702
0.109324
0.113261
0.0369737
0.0453175
0.0696144
0.0405043
0.0479626
0.0686453
0.033934
0.019545
0.0512774
0.0811584
0.0696057
0.0332361
0.0541519
0.0621676
0.0433494
0.0971592
0.0720228
0.055821
0.0505869
0.0621041
0.0387317
0.0090083
0.0303418
0.0200023
0.0478601
0.0309938
0.0325599
0.0207092
0.0115609
0.0384231
0.0530862
0.017549
0.0661829
0.035901
0.0229567
0.0773368
0.0779929
0.0770696
0.037833
0.0232603
0.0275111
0.0543594
0.0208946
0.0134875
0.0250253
0.0676276
0.0535162
0.0127463
0.0479661
0.087737
0.0360123
0.0698561
0.0386301
0.065647
0.0696082
0.052863
0.0205178
0.0144349
0.0301967
0.0368608
0.0107027
0.064475
0.0440068
0.0150409
0.0387766
0.0572317
0.0507223
0.0465309
0.0437232
0.0340725
0.0625771
0.0704389
0.0482828
0.0760007
0.0278923
0.0764116
0.0359063
0.0504455
0.00575048
0.0129068
0.0233249
0.0494073
0.0334077
0.063429
0.0514555
0.0289599
0.0720354
0.0651891
0.0583481
0.049169
0.0342833
0.0280818
0.038001
0.0452796
0.0247843
0.0415057
0.0338846
0.0549086
0.0539004
0.0512502
0.0479617
0.031509
0.0527528
0.0611572
0.0478559
0.0643189
0.0209509
0.0171631
0.00891791
0.0416646
0.0233747
0.0557416
0.0413726
0.0738527
0.0249973
0.0500389
0.034418
0.0827393
0.0539038
0.0402304
0.0639928
0.106055
0.0566947
0.0765396
0.0627936
0.0400529
0.0288463
0.0844572
0.0808978
0.0110196
0.0447696
0.0363389
0.0223854
0.0390921
0.0333688
0.0452405
0.0394569
0.0168533
0.0596908
0.0282387
0.0492716
0.023217
0.0611987
0.0244101
0.058516
0.0407711
0.0150945
0.0232553
0.0272028
0.0455434
0.04136
0.0309834
0.0254452
0.0662211
0.0398353
0.0665059
0.0342236
0.0352323
0.0604111
0.0158064
0.0440748
0.0442232
0.03834
0.0349608
0.0197578
0.0424965
0.0474881
0.0605896
0.0415178
0.012288
0.0378169
0.0276046
0.0626237
0.0553192
0.0811867
0.0631605
0.0216677
0.0540355
0.0536137
0.0728281
0.0742239
0.07796
0.0213785
0.0524586
0.0390686
0.06915
0.0417185
0.0370383
0.0307496
0.0308494
0.0412986
0.0197013
0.0495167
0.0180791
0.01189
0.0555835
0.0508485
0.0720301
0.0432644
0.0392462
0.0409195
0.00957585
0.0725801
0.0499058
0.0945628
0.0382129
0.0103613
0.0182858
0.0236285
0.0375889
0.0348165
0.0453949
0.0175367
0.05235
0.059593
0.0408639
0.058039
0.0370741
0.0457462
0.0420944
0.0206237
0.018661
0.0654928
0.00277601
0.0134881
0.0389064
0.0909687
0.0360953
0.027208
0.0129837
0.0644284
0.0283605
0.0429137
0.029712
0.0519773
0.0504208
0.0502663
0.0772257
0.0441942
0.0412622