/*--------------------------------*- C++ -*----------------------------------*\
| =========                 |                                                 |
| \\      /  F ield         | foam-extend: Open Source CFD                    |
|  \\    /   O peration     | Version:     3.1                                |
|   \\  /    A nd           | Web:         http://www.extend-project.de       |
|    \\/     M anipulation  |                                                 |
\*---------------------------------------------------------------------------*/
FoamFile
{
    version     2.0;
    format      ascii;
    class       volScalarField;
    location    "345600";
    object      Da_v;
}
// * * * * * * * * * * * * * * * * * * * * * * * * * * * * * * * * * * * * * //

dimensions      [0 2 -1 0 0 0 0];

internalField   uniform 5e-13;

boundaryField
{
    OUTER
    {
        type            calculated;
        value           uniform 5e-13;
    }
    INNER
    {
        type            calculated;
        value           uniform 5e-13;
    }
    BOTTOM
    {
        type            calculated;
        value           uniform 5e-13;
    }
    WALL_OUTER
    {
        type            calculated;
        value           uniform 5e-13;
    }
    WALL_INNER
    {
        type            calculated;
        value           uniform 5e-13;
    }
}


// ************************************************************************* //
