/*--------------------------------*- C++ -*----------------------------------*\
| =========                 |                                                 |
| \\      /  F ield         | foam-extend: Open Source CFD                    |
|  \\    /   O peration     | Version:     3.1                                |
|   \\  /    A nd           | Web:         http://www.extend-project.de       |
|    \\/     M anipulation  |                                                 |
\*---------------------------------------------------------------------------*/
FoamFile
{
    version     2.0;
    format      ascii;
    class       volScalarField;
    location    "345600";
    object      DEpsilonEq;
}
// * * * * * * * * * * * * * * * * * * * * * * * * * * * * * * * * * * * * * //

dimensions      [0 0 0 0 0 0 0];

internalField   nonuniform List<scalar> 
23248
(
0.000115976
0.000115973
0.000115955
0.000116021
0.000116204
0.000115598
0.000116092
0.000126521
0.000195011
0.000101
0.000101003
0.000101079
0.000101776
0.000101656
0.000101709
0.00010303
0.000111622
0.00013838
0.000117473
0.000117478
0.000117467
0.000117419
0.000117301
0.000117087
0.00011791
0.000129475
0.000196897
8.5619e-05
8.5637e-05
8.56417e-05
8.56378e-05
8.56909e-05
8.59104e-05
8.75251e-05
9.79705e-05
0.000133008
7.20154e-05
7.20399e-05
7.20448e-05
7.20244e-05
7.20007e-05
7.21703e-05
7.45632e-05
9.25238e-05
0.000174484
7.94569e-05
7.94454e-05
7.94328e-05
7.9427e-05
7.94265e-05
7.96059e-05
8.12108e-05
9.14797e-05
0.000127964
0.000113223
0.000113244
0.00011323
0.000113165
0.000113039
0.000112707
0.000112835
0.000121275
0.000179958
0.000105141
0.000105134
0.000105117
0.000105092
0.000105039
0.00010498
0.000105347
0.000109735
0.000131802
0.000180238
0.000180215
0.000180189
0.000180104
0.000180092
0.000179676
0.000179335
0.000182772
0.000203502
0.00010776
0.000107751
0.000107756
0.000107776
0.000107789
0.000107915
0.000108626
0.000112312
0.000128664
6.43241e-05
6.43349e-05
6.43547e-05
6.44592e-05
6.47987e-05
6.57253e-05
6.96125e-05
8.89787e-05
0.00018806
7.98976e-05
7.9901e-05
7.99085e-05
7.99648e-05
8.01362e-05
8.08149e-05
8.35187e-05
9.42266e-05
0.00012293
7.85674e-05
7.85291e-05
7.85183e-05
7.85296e-05
7.84969e-05
7.81664e-05
8.04598e-05
9.64732e-05
0.000166496
0.000102137
0.000102141
0.000102156
0.000102192
0.000102304
0.000102701
0.000104444
0.000111942
0.000132713
0.000132243
0.000132166
0.000132106
0.000132047
0.000131867
0.000133987
0.000133903
0.00014171
0.00018194
0.000114784
0.000114861
0.000114901
0.000114952
0.000115046
0.000115424
0.000116418
0.000120308
0.000131859
0.000124964
0.00012494
0.00012508
0.000124784
0.000124564
0.000124338
0.000125835
0.000137598
0.000180799
0.00011399
0.000114026
0.000114056
0.000114084
0.000114213
0.000114659
0.000116672
0.000124707
0.000145175
0.000153457
0.000153251
0.000153516
0.000153491
0.000153405
0.000152313
0.000138966
0.000153672
0.000202603
0.000134023
0.000134102
0.000134183
0.00013428
0.000134375
0.000134357
0.000135833
0.000141618
0.000155879
0.000116547
0.000116581
0.000116934
0.000116764
0.000116831
0.000117976
0.000143567
0.000140331
0.000200318
0.000146951
0.00014701
0.000147146
0.000147238
0.000147405
0.000147648
0.000140602
0.000154343
0.000165771
0.000228645
0.000228582
0.000228495
0.000228327
0.000228197
0.000233286
0.000211422
0.000208547
0.000270394
0.000184926
0.000184948
0.000184948
0.000184977
0.000185067
0.00018501
0.000184801
0.000189257
0.000193103
0.000255679
0.000255679
0.00025566
0.000255542
0.000255292
0.000253457
0.000251574
0.000258798
0.000298999
0.000230277
0.000230409
0.000230411
0.000230424
0.000230439
0.000230491
0.000231012
0.000232623
0.000230096
0.000390453
0.000390819
0.000390813
0.000390629
0.0003902
0.000389255
0.000388098
0.000391547
0.000339828
0.00027444
0.000274366
0.000274354
0.00027436
0.000274375
0.000274444
0.000274765
0.000275106
0.000252369
0.000288161
0.000287506
0.000287516
0.000287445
0.000287272
0.000287137
0.000289304
0.000309889
0.000397264
0.000255149
0.000255142
0.00025507
0.000254923
0.000254595
0.000253928
0.00025294
0.000254288
0.000269088
0.000343587
0.000342478
0.000342431
0.0003422
0.0003417
0.000340963
0.00034252
0.000363205
0.000401079
0.000228859
0.000228717
0.000228505
0.000228054
0.000226994
0.000224515
0.000219365
0.000217455
0.000247939
0.000301037
0.000301124
0.000301007
0.000300757
0.000300303
0.000299962
0.000302556
0.000325611
0.000385834
0.000217162
0.00021715
0.000216894
0.000216262
0.000214824
0.000211841
0.000205925
0.000203294
0.000239116
0.000204878
0.000204819
0.000204628
0.00020423
0.000203535
0.000203207
0.000209189
0.000252663
0.000377962
0.000216629
0.000216522
0.000216253
0.000215605
0.000214177
0.000211263
0.000206887
0.00020927
0.000226483
0.000230417
0.000230484
0.000230352
0.000230018
0.000229349
0.000228378
0.000229093
0.000245249
0.000323419
0.000188956
0.000188737
0.000188503
0.000187961
0.00018673
0.000184093
0.000179613
0.00018067
0.000221908
0.000108935
0.000108895
0.000108814
0.000109077
0.00011189
0.000109759
0.000110171
0.000125646
0.000203458
6.90705e-05
6.87406e-05
6.60364e-05
6.57374e-05
7.28646e-05
7.02291e-05
7.93974e-05
0.000103659
0.000250685
9.81491e-05
9.78282e-05
9.64302e-05
9.75078e-05
0.000101125
9.83798e-05
0.000101315
0.000127352
0.00024883
0.000111584
0.000112389
0.000110267
0.000110049
0.000109768
0.000112766
0.000115685
0.000136401
0.000255456
0.000107539
0.000107606
0.000107185
0.000106557
0.000106424
0.000106847
0.000110426
0.00013646
0.000242542
0.000142121
0.000141878
0.000141198
0.00014119
0.000141543
0.000141771
0.000144675
0.000168629
0.000259564
6.66826e-05
6.66114e-05
6.66877e-05
6.68844e-05
6.76064e-05
7.05775e-05
8.38511e-05
0.000135392
0.00029262
0.000156178
0.000156154
0.000156143
0.000155591
0.000155472
0.000155131
0.000158
0.000183542
0.000294756
0.000134932
0.00013493
0.000134844
0.000134628
0.000134569
0.00013526
0.000142972
0.000177689
0.00029342
0.000196918
0.000196913
0.000196866
0.000198277
0.000190279
0.000193467
0.000197476
0.000220141
0.000300573
0.000259677
0.000259658
0.000259479
0.000259107
0.00025611
0.000257289
0.000256541
0.000269156
0.000333494
0.000233523
0.000233456
0.000233359
0.000233141
0.000232621
0.000231979
0.00023324
0.00025287
0.000338794
0.00016515
0.000164797
0.000164697
0.0001645
0.000164194
0.000164191
0.000166596
0.000193155
0.00029316
0.000209335
0.000209667
0.000209566
0.000209292
0.000208644
0.000207675
0.000209202
0.000222502
0.000289525
0.000198929
0.000198872
0.000198739
0.000198434
0.000197845
0.00019706
0.000197909
0.000211692
0.000283719
0.000155127
0.000155095
0.00015492
0.000154543
0.000153866
0.00015316
0.000155284
0.000175349
0.00025607
9.92459e-05
9.91763e-05
9.90125e-05
9.87281e-05
9.8405e-05
9.86665e-05
0.000105227
0.000139291
0.000239572
0.000157744
0.000157695
0.000157519
0.000157111
0.000156315
0.000155623
0.000157618
0.000176009
0.000246892
0.000129845
0.000129828
0.000129645
0.000129262
0.000128658
0.000128454
0.000132974
0.000160952
0.000250437
9.97705e-05
9.9729e-05
9.97418e-05
0.000100318
0.000100332
0.000100935
0.000103037
0.000113888
0.000144553
8.13105e-05
8.15526e-05
8.21706e-05
8.23593e-05
7.89989e-05
8.34478e-05
8.91042e-05
9.72192e-05
0.000129931
0.000104169
0.000103778
0.000106054
0.000105629
0.000106666
0.000104189
0.000105693
0.000122402
0.000163321
9.76776e-05
9.75522e-05
9.69956e-05
9.58031e-05
9.57191e-05
9.70356e-05
0.000100699
0.000118954
0.0001702
9.75065e-05
9.7584e-05
9.78265e-05
9.8043e-05
9.81083e-05
9.86259e-05
0.000102508
0.000123071
0.000188159
7.97878e-05
7.98577e-05
7.99883e-05
8.00523e-05
8.04573e-05
8.21551e-05
8.92212e-05
0.000118789
0.000194977
0.000122346
0.000122475
0.000122584
0.000122752
0.000123228
0.000124858
0.000131215
0.000155902
0.000217426
6.36887e-05
6.37807e-05
6.38781e-05
6.41107e-05
6.49006e-05
6.76258e-05
7.78438e-05
0.000113804
0.000190376
0.000116869
0.000116934
0.00011699
0.000117123
0.000117599
0.000119129
0.000125331
0.000149266
0.000209255
0.00011338
0.000113808
0.000113891
0.000114427
0.00011541
0.000117311
0.000124456
0.000151561
0.000196313
0.000151745
0.000151691
0.000151688
0.000151732
0.000151888
0.000152287
0.000155143
0.000170284
0.000206646
0.000154543
0.000154544
0.000154461
0.000154247
0.00015379
0.000153078
0.000153081
0.000163064
0.000200569
0.000132342
0.000132322
0.000132111
0.00013159
0.000130411
0.000127954
0.000124533
0.000131685
0.000183854
0.000149805
0.000149752
0.00014951
0.000148908
0.00014754
0.000144656
0.000139683
0.000139625
0.000176868
0.00016124
0.000161244
0.000161022
0.000160467
0.00015922
0.000156548
0.000152171
0.000151904
0.000173162
0.000138714
0.000138578
0.000138303
0.000137689
0.000136409
0.000134165
0.000131822
0.000138218
0.000165795
0.0001024
0.000102247
0.000101915
0.000101186
9.97207e-05
9.73611e-05
9.67331e-05
0.000112788
0.000161101
0.000135076
0.000134904
0.000134609
0.000133947
0.000132583
0.000130079
0.000127098
0.000132278
0.000164155
0.000113674
0.000113537
0.000113263
0.000112662
0.000111484
0.000109664
0.00010946
0.000124084
0.000170017
0.000121107
0.000119046
0.000115876
0.000118802
0.000121103
0.000127096
0.000127907
0.00012233
0.000106039
0.000126216
0.000118569
0.000130989
0.000111385
0.000133338
0.00011387
0.000106978
0.000102078
9.39833e-05
0.000110469
0.000106469
0.000109501
0.000111632
0.000110145
9.96787e-05
0.000100533
9.00871e-05
9.01522e-05
9.52534e-05
0.000102156
0.000110385
0.000109051
0.000115167
0.000111205
9.1817e-05
9.16925e-05
9.56635e-05
9.70102e-05
9.88848e-05
0.000103382
0.000103326
0.000121739
0.000112851
0.000104883
0.000116583
0.000111112
0.000102319
9.85123e-05
0.000101757
0.000114061
0.000112642
0.000112873
0.000128068
0.000120448
0.000108512
0.000104324
0.000103331
9.70662e-05
9.91459e-05
9.55143e-05
0.000100758
9.23946e-05
0.000100625
8.4781e-05
7.50205e-05
7.54929e-05
8.2918e-05
9.98624e-05
0.000115609
0.000100784
0.000105071
0.000119359
0.00010172
9.10859e-05
0.000102461
9.51866e-05
9.81508e-05
9.7287e-05
9.81908e-05
0.000113104
8.80777e-05
9.11789e-05
0.00011006
0.000107781
9.60008e-05
8.78349e-05
0.000111064
0.000103909
0.000129741
9.9589e-05
0.000107449
0.000119957
0.000109563
0.000113731
9.82407e-05
0.000104226
8.38091e-05
8.96924e-05
0.000100764
9.73917e-05
9.65871e-05
7.96521e-05
8.81225e-05
9.08752e-05
9.46184e-05
8.2633e-05
8.98116e-05
0.000121512
9.99554e-05
0.00010833
0.000113041
9.99527e-05
9.32114e-05
0.000103674
0.00010151
8.86778e-05
9.75765e-05
9.56649e-05
9.56832e-05
9.15411e-05
9.72669e-05
9.47769e-05
9.46116e-05
0.000113124
0.000108928
0.000115771
0.000110216
0.000105288
9.58576e-05
0.000131781
0.00012096
0.000113912
0.000109131
9.98485e-05
7.42575e-05
7.56189e-05
9.63256e-05
9.92091e-05
9.16919e-05
8.36795e-05
0.000121232
0.000133644
8.80585e-05
0.000100333
7.58202e-05
8.33745e-05
0.000111367
0.000114909
0.000119611
0.000122713
0.000111924
9.45312e-05
0.00010828
8.98857e-05
9.42665e-05
0.000102504
9.79226e-05
8.57051e-05
9.35219e-05
9.93201e-05
0.000111482
0.000142129
0.000100922
9.25985e-05
9.51288e-05
9.45565e-05
9.59467e-05
0.000106345
0.000134868
0.00012547
0.000112388
9.97865e-05
6.95613e-05
8.17236e-05
9.92045e-05
9.76336e-05
0.000106302
0.000119919
0.000124981
0.000116474
9.08289e-05
8.55983e-05
9.12708e-05
7.11441e-05
8.39153e-05
0.000110335
0.000126995
0.000115904
0.0001208
9.89796e-05
9.90824e-05
9.12474e-05
8.8593e-05
9.2803e-05
9.36416e-05
9.9915e-05
9.80303e-05
0.000116935
0.00011248
0.000108479
9.85823e-05
9.50016e-05
7.80199e-05
7.66299e-05
8.99294e-05
0.000109662
0.000112182
0.000133536
0.000120594
0.00012188
7.98077e-05
9.81838e-05
9.73431e-05
9.97363e-05
0.000132052
0.000136283
0.000120749
0.000104862
9.04907e-05
8.14881e-05
9.23132e-05
6.14598e-05
5.83618e-05
9.58915e-05
0.0001093
0.000126036
0.000120633
0.000123549
0.000114755
9.03266e-05
8.88071e-05
0.000104755
0.000107953
0.000105693
0.000109206
0.000115816
0.000108202
9.37145e-05
8.59733e-05
7.88499e-05
9.51707e-05
7.08749e-05
6.79407e-05
8.88542e-05
0.000109869
0.0001083
0.000103886
0.000122821
9.93686e-05
0.000105239
0.000100806
0.000111406
0.000150654
0.000126605
0.00010601
0.000118104
8.6417e-05
8.1452e-05
6.52236e-05
8.33157e-05
5.73298e-05
6.07299e-05
0.000107604
9.48449e-05
0.000110303
0.000114346
0.000133639
9.07689e-05
0.000103661
0.000119919
9.61362e-05
0.000110339
0.000116365
0.000105232
0.000104607
9.73998e-05
6.75977e-05
5.71781e-05
6.1673e-05
9.08218e-05
6.10414e-05
6.73658e-05
9.43338e-05
0.00010943
9.86761e-05
0.000101673
9.70499e-05
9.77241e-05
0.000110031
0.000108156
0.000122053
0.000108925
0.000119583
8.24381e-05
9.36086e-05
7.15171e-05
5.83898e-05
6.5182e-05
8.35031e-05
5.03112e-05
7.04755e-05
0.000101497
8.4736e-05
8.62339e-05
0.000107312
0.000106494
0.000114608
9.39682e-05
0.00011114
9.58636e-05
0.000123391
8.65947e-05
9.41073e-05
6.63753e-05
5.45964e-05
6.04782e-05
5.10235e-05
6.52833e-05
9.38438e-05
6.6759e-05
8.3152e-05
0.000102362
0.000118703
0.000108455
8.62178e-05
9.28832e-05
0.000100465
0.000114898
9.57063e-05
0.000110481
8.44499e-05
9.51494e-05
7.73229e-05
6.99295e-05
6.51413e-05
6.44915e-05
6.58348e-05
6.19813e-05
5.83881e-05
9.58417e-05
8.71244e-05
8.2535e-05
8.82878e-05
0.000107793
9.48693e-05
9.76956e-05
9.74685e-05
9.47927e-05
6.8299e-05
7.48807e-05
5.84816e-05
6.67802e-05
5.82437e-05
4.93334e-05
5.92942e-05
7.33839e-05
8.20544e-05
5.55423e-05
8.54062e-05
8.97297e-05
0.000109621
0.000120691
7.97968e-05
8.78561e-05
0.000104569
8.8827e-05
0.000108168
6.69821e-05
8.99602e-05
8.02012e-05
6.99313e-05
7.03222e-05
6.72754e-05
6.83537e-05
5.98864e-05
6.11826e-05
8.05692e-05
8.97145e-05
7.88315e-05
0.000100637
9.30544e-05
7.64364e-05
8.19581e-05
9.35379e-05
8.21876e-05
8.67973e-05
6.92531e-05
5.33814e-05
5.26258e-05
4.51645e-05
5.13082e-05
5.46939e-05
5.47456e-05
6.98147e-05
7.41129e-05
7.93754e-05
0.000100153
8.56491e-05
9.48945e-05
0.00010551
7.16521e-05
8.55104e-05
7.22625e-05
9.92309e-05
6.33482e-05
7.87933e-05
6.0609e-05
6.79356e-05
7.18991e-05
6.39508e-05
6.87633e-05
6.82384e-05
6.95742e-05
7.02968e-05
7.58679e-05
8.28498e-05
7.52621e-05
9.3852e-05
0.000111304
7.16037e-05
7.7422e-05
9.59679e-05
7.11936e-05
6.5324e-05
4.64269e-05
4.16693e-05
3.38809e-05
5.25778e-05
5.78762e-05
5.12731e-05
6.10029e-05
6.97104e-05
5.64416e-05
7.49637e-05
7.64138e-05
9.55786e-05
8.89989e-05
0.0001009
8.14076e-05
5.83886e-05
8.33087e-05
5.60764e-05
7.45342e-05
5.39981e-05
5.51452e-05
5.23933e-05
7.05331e-05
7.64979e-05
5.78406e-05
7.42869e-05
6.71073e-05
6.54965e-05
7.63685e-05
8.36122e-05
9.08141e-05
8.09066e-05
0.000105003
6.2928e-05
6.1063e-05
5.51097e-05
7.01104e-05
4.5434e-05
3.51417e-05
3.78268e-05
3.73959e-05
4.87987e-05
5.40469e-05
5.37159e-05
7.6642e-05
8.6933e-05
6.71149e-05
7.4725e-05
8.34757e-05
8.61616e-05
9.36091e-05
9.45857e-05
6.26424e-05
6.83493e-05
5.03061e-05
7.19126e-05
4.68523e-05
5.11061e-05
4.52043e-05
5.30661e-05
5.81376e-05
6.37943e-05
6.90981e-05
5.99771e-05
8.19803e-05
4.51101e-05
6.87179e-05
7.82558e-05
8.01304e-05
8.76782e-05
9.58735e-05
5.62328e-05
5.26328e-05
5.49391e-05
3.53678e-05
4.3989e-05
3.82958e-05
3.11093e-05
3.76744e-05
4.15726e-05
3.98075e-05
6.16172e-05
6.72471e-05
6.29344e-05
7.55906e-05
8.16905e-05
9.58351e-05
9.39817e-05
9.5866e-05
0.000102115
7.05778e-05
4.75142e-05
5.20147e-05
3.86778e-05
4.0799e-05
3.73778e-05
3.89241e-05
4.36675e-05
4.20989e-05
5.17721e-05
5.92619e-05
7.47283e-05
5.96795e-05
7.01835e-05
6.20962e-05
7.80114e-05
7.62968e-05
8.99168e-05
0.000107837
5.47562e-05
4.59644e-05
4.25468e-05
3.0875e-05
3.09661e-05
3.75141e-05
3.16806e-05
3.06768e-05
4.39136e-05
4.81298e-05
4.33767e-05
7.28175e-05
7.44448e-05
7.45046e-05
9.93305e-05
9.97673e-05
9.70249e-05
0.000105125
0.000107194
5.66776e-05
5.34325e-05
3.85933e-05
2.82127e-05
3.33401e-05
3.43197e-05
2.9841e-05
3.13273e-05
4.1175e-05
3.69797e-05
5.35774e-05
5.93452e-05
7.0897e-05
5.26459e-05
6.83796e-05
7.92934e-05
8.33357e-05
9.2429e-05
0.000107215
5.47113e-05
4.57165e-05
4.66345e-05
3.73883e-05
2.77655e-05
2.81262e-05
3.03457e-05
3.56006e-05
3.53928e-05
4.89495e-05
6.24286e-05
6.93897e-05
7.4111e-05
7.57693e-05
9.03167e-05
9.5323e-05
9.47861e-05
0.000113747
0.000128188
6.38366e-05
5.12699e-05
3.72456e-05
3.0991e-05
2.43034e-05
2.9142e-05
2.70239e-05
2.60267e-05
2.90564e-05
4.00912e-05
3.94706e-05
6.14438e-05
6.96928e-05
6.34312e-05
6.73328e-05
9.10159e-05
9.29542e-05
9.67238e-05
0.000109697
5.64503e-05
5.68626e-05
4.55235e-05
4.59044e-05
3.31495e-05
2.85603e-05
2.95763e-05
3.52112e-05
4.50909e-05
5.62178e-05
6.70503e-05
8.19054e-05
8.89313e-05
9.26066e-05
0.000107938
0.00010058
9.93527e-05
0.000115606
0.000126652
6.1979e-05
5.79645e-05
4.79265e-05
2.95663e-05
3.06363e-05
2.22021e-05
2.79546e-05
2.68144e-05
2.95181e-05
3.89019e-05
5.30679e-05
6.62732e-05
7.60684e-05
7.63275e-05
8.21101e-05
9.59919e-05
9.9956e-05
0.000102376
0.000108495
5.56017e-05
6.08105e-05
5.74202e-05
4.31818e-05
4.3814e-05
3.50526e-05
3.37274e-05
3.61383e-05
4.8626e-05
6.11468e-05
7.69674e-05
8.73773e-05
9.62877e-05
0.000100857
0.000107031
0.000101176
0.000101031
0.00011426
0.000124232
5.73506e-05
6.19727e-05
5.69184e-05
4.32001e-05
2.79933e-05
3.69534e-05
3.03312e-05
3.51211e-05
3.87098e-05
5.01841e-05
6.16018e-05
7.74275e-05
8.53007e-05
8.8091e-05
9.37122e-05
0.00010234
0.000109412
9.90927e-05
0.000107922
6.326e-05
5.55673e-05
6.08423e-05
5.89331e-05
5.26468e-05
4.60568e-05
3.75885e-05
4.00299e-05
5.08376e-05
6.52987e-05
8.74557e-05
9.6171e-05
0.000101147
0.000100569
0.000122594
9.51896e-05
9.50658e-05
0.000115714
0.000126314
6.36231e-05
5.42961e-05
5.71688e-05
5.41292e-05
4.78307e-05
4.09204e-05
4.84696e-05
4.67375e-05
6.23783e-05
5.27861e-05
7.29358e-05
8.75971e-05
9.28652e-05
9.57148e-05
9.79968e-05
9.98756e-05
9.72647e-05
9.85385e-05
0.000106616
0.000190146
0.000263528
0.000194802
0.000162653
0.000176713
0.000151987
0.000138634
0.000120851
0.000108785
8.72066e-05
9.52266e-05
0.000102968
0.00012579
0.000114832
0.00011186
0.000103339
0.000106384
0.000119987
0.000119081
0.000210553
0.000195575
0.000157587
0.000135664
0.000162128
0.000161752
0.000136734
0.000154584
0.000140524
0.000116684
0.00012669
0.000108531
0.000145161
0.000128863
0.00010278
9.16856e-05
0.000103794
9.99437e-05
9.76633e-05
0.000246505
0.000225196
0.000159502
0.000148761
0.00018166
0.000165824
0.000161631
0.000139499
0.000149752
0.000129639
0.000102061
0.000113631
9.88461e-05
0.000102245
8.79542e-05
8.93581e-05
0.000102353
0.000109508
0.000115367
0.000176368
0.000166093
0.000137141
0.000142095
0.000169145
0.000143111
0.000122851
0.000150303
0.000159657
0.000125476
9.64304e-05
9.35398e-05
0.000117789
0.000101609
8.10271e-05
0.000131822
0.000100027
9.3375e-05
9.45232e-05
0.000188423
0.000240346
0.000171512
0.000159311
0.000147056
0.000121216
0.000167155
9.75159e-05
0.00016379
0.000147407
0.000138921
0.000107125
0.00012546
0.000103725
8.9209e-05
0.000103486
9.70469e-05
0.000102543
0.00011205
0.00017298
0.000160215
0.000146536
0.000139443
0.000134165
0.000136878
0.000126603
0.000130534
0.000135298
0.000135235
0.000166602
9.83651e-05
0.000112425
0.00011247
9.24965e-05
0.000110136
0.000102641
0.000103974
8.65067e-05
0.000227348
0.000202125
0.000137599
0.000141274
0.000155302
0.000146137
0.000120527
0.000136653
0.000130321
0.000110202
0.000116242
0.000115655
0.000112872
0.000107847
0.000100761
0.000105655
9.84801e-05
0.000114656
0.000111845
0.000173063
0.000161186
0.000147046
0.000131012
0.000131606
0.000139205
0.000126323
0.000119179
0.000114846
0.000123309
0.000118952
0.000114036
0.000114038
8.74984e-05
9.76056e-05
0.000111758
0.000111664
0.000129362
8.599e-05
0.000187561
0.000205807
0.00015527
0.000151567
0.000147714
0.000131794
0.000117947
0.000124992
0.000136554
0.000117412
0.000124017
0.000139493
0.000107891
8.21643e-05
9.29488e-05
9.88491e-05
9.79557e-05
8.98901e-05
9.3036e-05
0.000182023
0.000162446
0.000146405
0.000137319
0.000133945
0.000130075
0.000122436
0.000120049
0.000111748
0.000115795
0.000124458
0.000136402
0.000114109
8.77521e-05
0.000105334
0.000117792
0.000109642
9.59891e-05
7.76304e-05
0.000147858
0.000256397
0.000177395
0.000167121
0.000154256
0.000141912
0.000147081
0.000135294
0.000133074
0.000123937
0.000131044
0.000128094
9.73198e-05
0.000119304
8.66563e-05
0.000132932
9.12237e-05
7.4012e-05
8.58522e-05
0.000159053
0.000164465
0.000138613
0.00014161
0.000133579
0.00012616
0.00011936
0.000120118
0.000115631
0.000110793
0.000133433
0.000136517
9.78135e-05
0.000101069
0.000100739
0.000137381
9.7475e-05
6.64415e-05
7.0119e-05
0.000246721
0.000204458
0.000164597
0.000174763
0.000159324
0.000146276
0.000135051
0.000141234
0.000143957
0.000130332
0.000121225
0.000111225
0.000113149
0.000107672
0.000117285
9.7384e-05
6.52135e-05
6.8327e-05
8.03421e-05
0.000171249
0.000153396
0.000131629
0.000137741
0.000134017
0.000128613
0.000125619
0.000121354
0.000122442
0.000122812
0.000128818
0.000108624
0.00010222
9.55797e-05
0.000119866
0.000115171
6.05192e-05
6.95579e-05
7.22779e-05
0.000210092
0.00019279
0.000168149
0.000185039
0.000152327
0.000142578
0.000150951
0.000139878
0.000139419
0.000124762
0.000140786
0.000136798
0.000122051
0.000123997
0.000115165
7.57316e-05
6.8253e-05
6.65154e-05
7.81068e-05
0.00017027
0.000154527
0.000129499
0.000133141
0.000140838
0.000133869
0.000127633
0.000133524
0.000123394
0.000119058
0.000118357
0.000134185
0.000101226
0.000106161
0.000122348
8.338e-05
6.99547e-05
7.65927e-05
8.18947e-05
0.000221491
0.000179658
0.000166342
0.000172415
0.000167287
0.000152029
0.00014907
0.000152874
0.000121344
0.000113822
0.000142039
0.00013486
0.000122863
0.000112143
9.8111e-05
8.40246e-05
7.94636e-05
8.04785e-05
9.02674e-05
0.000183735
0.000149687
0.000136885
0.000133271
0.000141263
0.000137992
0.000132716
0.000128275
0.000128911
0.000129326
0.000125515
0.000120179
9.6428e-05
0.000106782
9.60113e-05
7.41643e-05
8.15481e-05
8.88235e-05
8.73225e-05
0.000215422
0.000194631
0.000152122
0.000195347
0.000174847
0.000169491
0.000192786
0.000157335
0.000156771
0.000133915
0.000160166
0.000130339
0.000145379
0.000125813
0.000102144
0.000102326
9.0561e-05
8.97617e-05
9.52276e-05
0.000187288
0.000155404
0.000143139
0.000144973
0.0001365
0.000143979
0.000146567
0.000141068
0.000130182
0.000124834
0.000125653
0.000113756
0.000122577
0.000106333
0.000104103
7.59469e-05
9.57363e-05
9.86932e-05
8.67565e-05
0.000235733
0.000197559
0.000162221
0.000165155
0.000183543
0.00017497
0.0001651
0.00017911
0.000150472
0.000145596
0.000141491
0.000124646
0.000122631
0.000115316
8.67941e-05
0.000104974
0.000101869
9.47253e-05
8.94418e-05
0.000205031
0.000158303
0.000152344
0.000151479
0.000145461
0.000154918
0.000152354
0.000147641
0.00013795
0.000131387
0.000122435
0.000110373
0.000104483
0.000105161
8.03514e-05
8.7951e-05
9.73181e-05
9.98128e-05
9.16171e-05
0.000242473
0.000227443
0.000203959
0.000167949
0.000208026
0.000189063
0.00017616
0.00017226
0.00015061
0.00011933
0.000150856
0.000129275
0.000138036
0.000114788
8.69335e-05
0.000101104
0.000105046
8.67055e-05
6.84069e-05
0.000228387
0.000179785
0.000170532
0.00017773
0.000165736
0.000177625
0.000159079
0.0001498
0.00013903
0.00013174
0.000118669
0.00011044
0.000128049
0.000108895
8.74434e-05
9.54739e-05
9.8501e-05
9.18639e-05
7.00107e-05
0.000280381
0.000273528
0.000270156
0.000240988
0.000229487
0.000218748
0.000212558
0.000191995
0.000150473
0.000151844
0.000151915
0.000122828
0.000117726
0.000107002
9.08542e-05
9.0494e-05
9.21984e-05
7.88939e-05
6.43602e-05
0.000266169
0.000213339
0.000194686
0.000208097
0.000188937
0.000179689
0.000179776
0.000165235
0.000145779
0.000124864
0.000125762
0.000122126
0.000128745
0.000110633
7.54908e-05
8.57655e-05
9.23791e-05
9.12164e-05
7.7209e-05
0.000389088
0.000329035
0.000309153
0.000333259
0.000259112
0.00027056
0.00022855
0.000202483
0.000188295
0.000184057
0.000173038
0.000108475
9.89371e-05
0.000114423
0.000100613
9.31387e-05
9.45765e-05
8.58714e-05
6.62814e-05
0.000295588
0.000235248
0.000230303
0.000210375
0.00020648
0.000194955
0.000196362
0.00017783
0.000145039
0.000129793
0.000136157
0.000115465
0.000109535
9.81155e-05
8.73989e-05
8.77935e-05
8.42699e-05
8.69184e-05
7.5957e-05
0.000357114
0.000400225
0.000361199
0.000391315
0.000303914
0.000304149
0.000250284
0.000218566
0.000201888
0.000168832
0.00016833
0.000113257
0.000100016
0.000109377
0.000104159
0.000102529
9.47362e-05
8.71476e-05
6.80238e-05
0.00026923
0.000238504
0.000251665
0.000255884
0.000243876
0.000223451
0.000205612
0.000180005
0.000154588
0.000139515
0.000137128
0.000109124
0.000112177
9.46985e-05
9.39357e-05
7.88289e-05
9.03105e-05
8.63321e-05
7.64171e-05
0.000312479
0.000359271
0.000395545
0.000390789
0.000357853
0.000272131
0.000275053
0.000218544
0.000210716
0.000165286
0.000149163
0.000124935
0.000113778
9.60613e-05
9.43687e-05
9.44047e-05
9.09727e-05
8.02956e-05
6.51609e-05
0.000277495
0.000181159
0.000254691
0.000284683
0.000268097
0.000249884
0.000225051
0.000194122
0.00017265
0.000147538
0.000140266
0.00011971
0.000118275
0.000104984
8.71456e-05
8.08494e-05
8.71942e-05
8.48463e-05
7.35561e-05
0.000336682
0.00041022
0.000393699
0.00040676
0.000350726
0.00032994
0.000312075
0.000259416
0.000201424
0.00017967
0.000156292
0.000135372
0.0001118
9.59678e-05
9.06056e-05
9.18747e-05
8.93016e-05
7.69816e-05
6.31451e-05
0.00030132
0.000204869
0.000270985
0.000286961
0.000285632
0.000276351
0.000243782
0.00020935
0.0001765
0.000155213
0.000151407
0.000128898
0.000120067
0.00011793
9.88827e-05
7.6375e-05
8.51418e-05
7.90621e-05
7.09986e-05
0.000251761
0.000294009
0.000361001
0.000346479
0.000341038
0.000330272
0.000311542
0.000283428
0.000241975
0.000196593
0.00017934
0.000156255
0.00011299
0.000121053
0.000106815
9.08753e-05
8.90711e-05
8.15155e-05
6.82072e-05
0.000332113
0.000217445
0.000165695
0.000236736
0.00026766
0.00026178
0.000246876
0.000230353
0.000206206
0.000165297
0.000163199
0.000135326
0.000120099
0.000122153
0.000108378
6.91412e-05
7.67119e-05
8.1116e-05
7.12861e-05
0.000318378
0.000219386
0.000296953
0.000282531
0.000325724
0.000246942
0.000273914
0.000339796
0.00027073
0.000217647
0.000182615
0.000158679
0.000124204
0.000110461
0.000124543
9.39017e-05
8.52196e-05
9.30015e-05
7.72347e-05
0.000353897
0.0001975
0.000155507
0.000189824
0.000232061
0.000229936
0.000241686
0.000243102
0.000224012
0.000186792
0.000169273
0.000151479
0.000120763
0.000112759
0.000119569
7.23271e-05
5.93015e-05
7.36091e-05
7.26636e-05
0.000222215
0.000228047
0.000181456
0.0001982
0.000207422
0.000122623
0.000114491
0.000100627
8.36829e-05
8.86523e-05
9.10449e-05
9.55831e-05
0.000105722
0.000129583
0.000134677
0.000116187
9.7571e-05
0.000116172
0.000114998
0.000163103
0.000397671
0.000225783
0.000215737
0.00015343
0.000108706
9.99174e-05
7.29832e-05
5.6352e-05
7.41282e-05
8.98918e-05
9.83299e-05
0.000108128
0.000124804
0.000129479
0.00011817
0.000109115
0.00011259
0.000124581
0.000318809
0.000407148
0.000218123
0.000163674
0.000108985
6.21558e-05
3.79753e-05
6.93573e-05
7.49779e-05
9.65432e-05
9.82197e-05
0.000104301
0.000121927
0.000130396
0.000124741
0.000115912
0.000115126
0.000121023
0.000123892
0.000353292
0.000261278
0.000164061
0.000121128
7.71153e-05
4.83307e-05
4.78933e-05
5.05437e-05
4.99786e-05
7.7603e-05
9.46181e-05
0.000101446
0.000117315
0.000134637
0.000131353
0.000116815
0.000119546
0.00012039
0.000131383
0.000381123
0.000246935
0.00012521
7.77083e-05
5.37912e-05
2.89441e-05
3.63193e-05
3.87161e-05
5.63665e-05
8.0834e-05
0.000105806
0.000102817
0.000116004
0.000136315
0.000136506
0.000115892
0.000115668
0.000131469
0.000127649
0.000411206
0.000226437
0.000136196
6.98683e-05
4.27078e-05
2.09976e-05
5.0092e-05
3.10622e-05
5.26411e-05
8.46228e-05
0.000114408
0.000107779
0.000125495
0.000134912
0.000137745
0.000121568
0.000130839
0.000120594
0.000130776
0.000401674
0.000214281
7.10488e-05
2.53416e-05
7.15664e-05
6.22727e-05
4.40137e-05
5.65532e-05
8.54861e-05
8.78347e-05
0.000117116
0.000113264
0.000129011
0.000139816
0.000128585
0.000131702
0.000127833
0.000129363
0.000134521
0.000404105
0.000176023
5.81327e-05
7.72045e-05
4.87306e-05
5.69705e-05
5.81819e-05
8.90499e-05
7.68391e-05
0.000127732
0.000110486
0.000123314
0.000131165
0.000156276
0.000147608
0.000134112
0.000137808
0.000137614
0.000153832
0.000411524
0.000187141
4.86675e-05
6.08223e-05
5.43975e-05
7.13695e-05
9.37332e-05
8.78832e-05
9.49773e-05
0.000131496
0.000145963
0.00011531
0.000141359
0.000153449
0.000171185
0.000148575
0.0001526
0.000145641
0.000115677
0.000444599
0.000174178
8.05206e-05
9.93284e-05
0.000100054
0.000107068
8.95996e-05
0.000121144
0.00012979
0.000130974
0.000146674
0.000159062
0.000194396
0.000192341
0.00017429
0.000180251
0.00017843
0.00012702
0.00015476
0.000341859
0.000193218
9.77481e-05
9.11262e-05
8.27731e-05
9.0161e-05
0.000136816
0.000149266
0.000137303
0.000163391
0.000185823
0.0001926
0.000192049
0.00016994
0.000188619
0.000165701
0.000150606
0.000137795
0.000107523
0.000352969
0.000172061
0.000157887
0.000140415
8.60593e-05
0.000142511
0.000129093
0.000205914
0.000189222
0.000186307
0.000192433
0.000192771
0.000181367
0.000164693
0.000172845
0.00017204
0.000127267
0.000138297
0.000148626
0.000310667
0.000210492
0.000222843
0.000213659
0.000209106
0.000255731
0.000287857
0.000315079
0.000204062
0.00019546
0.000187484
0.000171577
0.000159481
0.000190857
0.00013257
0.000134848
0.000145946
0.000119558
0.000142385
0.000327811
0.00023013
0.000251018
0.000319338
0.000324766
0.000223097
0.000313259
0.000225703
0.000195783
0.000196907
0.000171768
0.000168571
0.000136892
0.000135339
0.000128878
0.000121301
0.000131634
0.000120808
0.000126843
0.000393399
0.00023565
0.000281186
0.000377431
0.000352644
0.000294716
0.000277183
0.000203616
0.000184984
0.000183883
0.000161351
0.00015791
0.000135744
0.000114877
0.000115999
0.000112258
0.000119928
0.000112973
0.000110603
0.000250256
0.000243125
0.00023178
0.00029291
0.000319718
0.000305443
0.000258632
0.000235462
0.000212142
0.000193191
0.000170847
0.000150265
0.000127246
0.000126654
0.000117647
0.000113055
0.000111252
0.000109302
0.000105387
0.000329033
0.00023284
0.000228225
0.000249044
0.00030922
0.000272575
0.00027413
0.000266416
0.000227113
0.000208399
0.00019546
0.000170583
0.000145954
0.000129739
0.000117998
0.000106445
0.000104603
0.000106908