/*--------------------------------*- C++ -*----------------------------------*\
| =========                 |                                                 |
| \\      /  F ield         | foam-extend: Open Source CFD                    |
|  \\    /   O peration     | Version:     3.1                                |
|   \\  /    A nd           | Web:         http://www.extend-project.de       |
|    \\/     M anipulation  |                                                 |
\*---------------------------------------------------------------------------*/
FoamFile
{
    version     2.0;
    format      ascii;
    class       volSymmTensorField;
    location    "345600";
    object      DEpsilon;
}
// * * * * * * * * * * * * * * * * * * * * * * * * * * * * * * * * * * * * * //

dimensions      [0 0 0 0 0 0 0];

internalField   nonuniform List<symmTensor> 
23248
(
(9.74735e-05 -9.57092e-08 -6.47347e-05 -4.58682e-08 -9.57851e-09 -5.40438e-05)
(9.7473e-05 -5.30589e-08 -6.47238e-05 1.03734e-07 -1.21071e-07 -5.40893e-05)
(9.74958e-05 -1.2628e-07 -6.46749e-05 2.95706e-07 -4.23401e-07 -5.41466e-05)
(9.76834e-05 -4.08199e-07 -6.45787e-05 7.46299e-07 -1.20049e-06 -5.43384e-05)
(9.83624e-05 -8.217e-07 -6.44517e-05 1.61682e-06 -3.0569e-06 -5.42737e-05)
(9.83102e-05 -1.67778e-06 -6.39323e-05 4.32116e-06 -7.48946e-06 -5.35766e-05)
(9.88953e-05 -4.70671e-06 -6.27935e-05 1.13444e-05 -1.89347e-05 -5.26036e-05)
(0.000101209 -1.20286e-05 -6.06609e-05 3.11242e-05 -4.7768e-05 -5.22166e-05)
(0.000111202 -3.94562e-05 -3.90264e-05 0.000116182 -0.000111968 -8.30235e-05)
(8.84986e-05 -3.86847e-08 -5.6026e-05 1.34349e-07 1.87264e-07 -4.33157e-05)
(8.8493e-05 -3.50799e-08 -5.60513e-05 3.30219e-07 9.82152e-08 -4.33313e-05)
(8.86101e-05 -8.31626e-09 -5.61109e-05 5.66483e-07 2.36477e-07 -4.33268e-05)
(8.87118e-05 -8.52475e-08 -5.68531e-05 1.54821e-06 6.84942e-07 -4.3809e-05)
(8.91982e-05 -2.02028e-07 -5.67479e-05 3.36812e-06 1.13996e-06 -4.35022e-05)
(8.93927e-05 1.61374e-07 -5.68849e-05 8.9763e-06 3.14483e-06 -4.40265e-05)
(8.98008e-05 3.27151e-07 -5.75997e-05 2.35866e-05 8.55698e-06 -4.53987e-05)
(8.98755e-05 -3.25726e-08 -5.99516e-05 6.10634e-05 2.19133e-05 -4.77712e-05)
(8.48844e-05 -4.01038e-06 -5.83847e-05 0.000143137 4.80009e-05 -3.88084e-05)
(7.45453e-05 3.51274e-08 -6.78986e-05 2.67305e-07 1.59208e-07 -7.69666e-05)
(7.45623e-05 -1.3852e-08 -6.78867e-05 1.47619e-07 -6.75416e-08 -7.69848e-05)
(7.45741e-05 -6.16949e-08 -6.78587e-05 2.714e-07 -3.87192e-07 -7.69925e-05)
(7.45948e-05 -1.56288e-07 -6.78003e-05 6.61529e-07 -1.10316e-06 -7.69457e-05)
(7.46505e-05 -3.93334e-07 -6.76594e-05 1.67853e-06 -2.89965e-06 -7.6753e-05)
(7.47208e-05 -1.0549e-06 -6.72533e-05 4.36051e-06 -7.4891e-06 -7.61859e-05)
(7.4927e-05 -2.78192e-06 -6.61063e-05 1.15898e-05 -1.93173e-05 -7.51457e-05)
(7.56319e-05 -7.73315e-06 -6.26878e-05 3.43254e-05 -4.84822e-05 -7.7001e-05)
(8.17612e-05 -1.87334e-05 -5.00599e-05 0.000129921 -0.000104507 -0.000104287)
(8.13384e-05 -1.17625e-08 -2.81055e-05 4.42495e-07 4.72926e-08 -5.51095e-05)
(8.13525e-05 -9.51357e-09 -2.81051e-05 3.37018e-07 5.56926e-08 -5.5116e-05)
(8.13626e-05 -7.31336e-09 -2.81179e-05 5.50518e-07 1.69339e-07 -5.51307e-05)
(8.13373e-05 -6.05386e-09 -2.81756e-05 1.34082e-06 4.54806e-07 -5.51977e-05)
(8.13991e-05 -2.46166e-09 -2.82094e-05 3.42317e-06 1.16111e-06 -5.54155e-05)
(8.13618e-05 8.06686e-08 -2.8377e-05 9.06462e-06 3.03947e-06 -5.59931e-05)
(8.1053e-05 2.94706e-09 -2.89283e-05 2.4264e-05 8.2468e-06 -5.73558e-05)
(8.00466e-05 -1.32231e-06 -3.03294e-05 6.33052e-05 2.35582e-05 -5.85392e-05)
(7.72309e-05 -5.12439e-06 -3.05696e-05 0.000145544 5.82334e-05 -4.10896e-05)
(6.02232e-05 2.14513e-08 1.40439e-05 -9.21576e-08 1.81108e-08 -6.13065e-05)
(6.02159e-05 -2.59027e-09 1.40449e-05 9.4923e-08 -7.7438e-08 -6.13555e-05)
(6.02132e-05 -1.98646e-08 1.40478e-05 2.44864e-07 -3.57988e-07 -6.13623e-05)
(6.02111e-05 -5.49428e-08 1.40529e-05 6.09844e-07 -1.00944e-06 -6.13074e-05)
(6.01872e-05 -1.46806e-07 1.41105e-05 1.59017e-06 -2.68053e-06 -6.11444e-05)
(6.01736e-05 -4.00194e-07 1.42351e-05 4.11393e-06 -7.03119e-06 -6.06221e-05)
(6.01897e-05 -1.15349e-06 1.47153e-05 1.07611e-05 -1.81011e-05 -5.96051e-05)
(6.05545e-05 -4.05017e-06 1.69392e-05 3.15346e-05 -4.47559e-05 -6.21709e-05)
(6.77446e-05 -2.43987e-05 2.42458e-05 0.000119183 -9.51355e-05 -9.57836e-05)
(7.87045e-05 2.86872e-08 -6.79478e-06 6.12814e-08 1.30611e-07 -5.77151e-05)
(7.86881e-05 -5.33116e-11 -6.80742e-06 2.67753e-07 6.8699e-08 -5.77316e-05)
(7.86781e-05 -1.3499e-08 -6.80909e-06 5.01289e-07 1.52944e-07 -5.7743e-05)
(7.86624e-05 -2.98111e-08 -6.82604e-06 1.23393e-06 4.1573e-07 -5.78159e-05)
(7.86127e-05 -9.51469e-08 -6.86033e-06 3.22524e-06 1.08309e-06 -5.80108e-05)
(7.8487e-05 -2.88113e-07 -6.9572e-06 8.56527e-06 2.82383e-06 -5.85636e-05)
(7.82604e-05 -1.01046e-06 -7.26607e-06 2.27684e-05 7.72968e-06 -5.98893e-05)
(7.85875e-05 -3.70721e-06 -8.27808e-06 5.79588e-05 2.31667e-05 -6.07739e-05)
(8.30033e-05 -1.06132e-05 -1.07359e-05 0.000127567 6.36291e-05 -4.47961e-05)
(0.000108895 -2.93588e-08 -2.59054e-05 -2.16973e-07 9.65264e-08 -7.94573e-05)
(0.000108885 -2.94936e-09 -2.5905e-05 9.6219e-08 -5.5315e-08 -7.95431e-05)
(0.000108885 7.52911e-09 -2.588e-05 2.26396e-07 -3.27261e-07 -7.95441e-05)
(0.000108881 3.31425e-08 -2.58288e-05 5.5465e-07 -9.23418e-07 -7.94802e-05)
(0.000108892 8.34882e-08 -2.57334e-05 1.42023e-06 -2.43128e-06 -7.93171e-05)
(0.00010887 7.82721e-08 -2.53611e-05 3.65899e-06 -6.34468e-06 -7.87515e-05)
(0.00010879 1.92514e-07 -2.42943e-05 9.59831e-06 -1.62702e-05 -7.75616e-05)
(0.000108319 1.06806e-06 -2.21568e-05 2.91427e-05 -4.03463e-05 -7.96973e-05)
(0.000105828 1.43741e-05 -1.76119e-05 0.000122507 -8.21538e-05 -0.000111354)
(0.000106518 -5.67443e-09 3.30594e-05 4.36779e-07 -2.13841e-08 -6.12138e-05)
(0.000106525 -5.10174e-09 3.30308e-05 2.83517e-07 3.79645e-08 -6.11857e-05)
(0.000106529 -1.70521e-08 3.30134e-05 4.6417e-07 1.39347e-07 -6.1198e-05)
(0.000106541 -5.17836e-08 3.30015e-05 1.11618e-06 3.84517e-07 -6.12631e-05)
(0.000106577 -1.50659e-07 3.2984e-05 2.87177e-06 9.84933e-07 -6.143e-05)
(0.000106659 -5.0801e-07 3.28549e-05 7.58001e-06 2.51475e-06 -6.19451e-05)
(0.00010677 -1.48331e-06 3.24222e-05 2.02513e-05 6.81372e-06 -6.32055e-05)
(0.000106701 -3.63174e-06 3.08158e-05 5.27697e-05 2.08422e-05 -6.42127e-05)
(0.00010658 -8.07518e-06 2.34953e-05 0.000118606 6.08715e-05 -4.86838e-05)
(0.000186866 -8.21656e-08 7.8656e-05 -2.16531e-07 1.29381e-07 -7.48484e-05)
(0.000186859 -1.10102e-08 7.86499e-05 9.70394e-08 -3.7279e-08 -7.49162e-05)
(0.000186858 3.22543e-08 7.86471e-05 2.1264e-07 -3.11332e-07 -7.48968e-05)
(0.000186903 1.42658e-07 7.85751e-05 5.10272e-07 -8.69406e-07 -7.48257e-05)
(0.000186946 4.26795e-07 7.90201e-05 1.21576e-06 -2.19984e-06 -7.43099e-05)
(0.00018714 6.4838e-07 7.87406e-05 3.0501e-06 -5.70597e-06 -7.37895e-05)
(0.000187541 1.35436e-06 7.85796e-05 7.52097e-06 -1.42006e-05 -7.25345e-05)
(0.000188087 1.65554e-07 7.97551e-05 2.02489e-05 -3.48973e-05 -7.27481e-05)
(0.000186281 -1.79476e-05 4.78927e-05 8.70494e-05 -7.84059e-05 -0.00010727)
(0.000118969 -6.59096e-08 1.14425e-05 3.92942e-07 -7.15456e-08 -6.35637e-05)
(0.000118971 -3.33995e-08 1.14542e-05 3.02975e-07 1.38067e-08 -6.35217e-05)
(0.000118996 -2.29327e-08 1.1467e-05 4.67308e-07 1.1515e-07 -6.35342e-05)
(0.000119067 -2.36503e-08 1.15395e-05 1.0783e-06 3.48214e-07 -6.35984e-05)
(0.000119218 -8.01923e-08 1.16979e-05 2.6943e-06 8.93349e-07 -6.37255e-05)
(0.000119572 -2.85876e-07 1.19748e-05 6.91866e-06 2.20754e-06 -6.41882e-05)
(0.000120464 -1.20351e-06 1.24999e-05 1.77953e-05 5.71608e-06 -6.53033e-05)
(0.000122237 -5.2683e-06 1.28672e-05 4.51617e-05 1.59015e-05 -6.65918e-05)
(0.000123864 -1.46879e-05 6.55609e-06 0.000104238 4.69324e-05 -5.79206e-05)
(-1.06006e-05 -1.2909e-07 -2.18804e-05 1.47373e-07 3.47637e-07 -9.34664e-05)
(-1.06041e-05 -1.57583e-08 -2.18656e-05 1.7839e-07 2.0096e-08 -9.34805e-05)
(-1.06023e-05 5.8267e-08 -2.18569e-05 2.49225e-07 -2.89082e-07 -9.34753e-05)
(-1.06218e-05 2.14441e-07 -2.18719e-05 5.66836e-07 -8.55188e-07 -9.34433e-05)
(-1.07018e-05 5.12079e-07 -2.19698e-05 1.45168e-06 -2.30733e-06 -9.33489e-05)
(-1.08577e-05 1.18957e-06 -2.19876e-05 3.73789e-06 -6.08956e-06 -9.29688e-05)
(-1.11969e-05 3.13735e-06 -2.18091e-05 9.84616e-06 -1.53901e-05 -9.23495e-05)
(-1.07128e-05 1.28781e-05 -2.02494e-05 2.95659e-05 -3.53205e-05 -9.60565e-05)
(-4.40442e-05 4.44365e-06 0.000116114 9.94104e-05 -7.70317e-05 -4.86878e-05)
(3.70408e-05 7.94199e-08 4.26505e-05 3.39498e-07 -1.60989e-07 -7.01671e-05)
(3.70676e-05 1.54936e-08 4.26035e-05 3.50971e-07 -1.20999e-08 -7.02183e-05)
(3.70532e-05 -4.73674e-09 4.25873e-05 5.0289e-07 1.28006e-07 -7.0239e-05)
(3.69838e-05 -1.87567e-08 4.25871e-05 1.14326e-06 3.8509e-07 -7.02812e-05)
(3.67803e-05 -8.31257e-08 4.25914e-05 2.9335e-06 9.92431e-07 -7.03918e-05)
(3.63899e-05 -2.809e-07 4.25417e-05 7.71476e-06 2.5628e-06 -7.08392e-05)
(3.57389e-05 -8.91872e-07 4.24671e-05 2.01313e-05 7.08544e-06 -7.18072e-05)
(3.52625e-05 -3.87903e-06 4.26015e-05 4.97317e-05 2.14365e-05 -7.13079e-05)
(3.85644e-05 -1.2904e-05 3.91732e-05 0.000105167 5.82072e-05 -5.22599e-05)
(5.03413e-05 -1.3509e-07 1.62025e-05 5.1845e-07 3.86833e-07 -8.05846e-05)
(5.0365e-05 -1.43088e-09 1.61879e-05 2.23037e-07 1.49934e-08 -8.05528e-05)
(5.03695e-05 9.32981e-08 1.61819e-05 2.75413e-07 -3.19619e-07 -8.05245e-05)
(5.03675e-05 2.74698e-07 1.61737e-05 6.12961e-07 -9.466e-07 -8.04871e-05)
(5.03015e-05 6.47882e-07 1.62065e-05 1.47976e-06 -2.47501e-06 -8.02636e-05)
(4.92197e-05 1.62662e-06 1.60348e-05 3.93389e-06 -6.36402e-06 -7.9765e-05)
(4.91626e-05 4.6856e-06 1.59976e-05 1.00533e-05 -1.59867e-05 -7.9105e-05)
(5.14005e-05 1.25107e-05 1.63669e-05 2.88288e-05 -3.81905e-05 -8.19923e-05)
(6.03095e-05 3.68164e-05 2.22167e-05 0.00011163 -7.36739e-05 -0.000110413)
(6.02232e-05 5.96563e-08 5.95433e-05 5.9613e-07 -2.14737e-07 -7.04312e-05)
(6.02095e-05 9.63611e-09 5.95791e-05 3.55343e-07 -2.64753e-08 -7.04045e-05)
(6.0204e-05 -2.45696e-08 5.95857e-05 5.25807e-07 1.39304e-07 -7.04223e-05)
(6.01873e-05 -9.2278e-08 5.95882e-05 1.18722e-06 4.19852e-07 -7.04751e-05)
(6.01587e-05 -2.83698e-07 5.95845e-05 2.96928e-06 1.06752e-06 -7.06176e-05)
(6.00949e-05 -7.17125e-07 5.95422e-05 7.6626e-06 2.69177e-06 -7.10537e-05)
(5.99091e-05 -1.62952e-06 5.96645e-05 1.98781e-05 7.21268e-06 -7.19043e-05)
(5.96391e-05 -3.80371e-06 5.98974e-05 5.00141e-05 2.08526e-05 -7.17203e-05)
(6.06778e-05 -8.08744e-06 5.61541e-05 0.000107492 5.55556e-05 -5.40083e-05)
(9.4177e-05 -1.07176e-07 7.63857e-05 4.96123e-07 3.23116e-07 -7.62011e-05)
(9.4157e-05 1.28202e-08 7.63378e-05 1.92486e-07 -2.42501e-08 -7.61063e-05)
(9.41616e-05 1.04284e-07 7.62655e-05 2.45603e-07 -3.2661e-07 -7.60927e-05)
(9.42136e-05 3.34166e-07 7.61794e-05 5.4968e-07 -8.94764e-07 -7.6066e-05)
(9.46551e-05 1.83383e-06 7.56561e-05 1.34152e-06 -2.1836e-06 -7.60914e-05)
(9.24993e-05 2.36297e-06 8.04354e-05 3.40353e-06 -5.74609e-06 -7.41732e-05)
(9.43688e-05 6.2723e-06 7.81456e-05 8.25583e-06 -1.40036e-05 -7.42048e-05)
(8.89719e-05 1.40648e-05 8.37093e-05 2.42272e-05 -3.37965e-05 -7.37782e-05)
(7.2207e-05 2.94171e-05 9.48763e-05 9.32803e-05 -7.07563e-05 -8.90891e-05)
(9.89393e-05 1.04382e-07 2.32668e-05 -2.39663e-07 -1.27023e-07 -9.43272e-05)
(9.89474e-05 3.11712e-08 2.32766e-05 2.55587e-07 -2.01932e-09 -9.44608e-05)
(9.89555e-05 -2.98699e-08 2.33001e-05 4.99613e-07 1.27158e-07 -9.45164e-05)
(9.8954e-05 -9.66084e-08 2.33568e-05 1.15863e-06 3.67638e-07 -9.45852e-05)
(9.88581e-05 -2.64728e-07 2.36029e-05 2.92409e-06 9.12021e-07 -9.47232e-05)
(9.87211e-05 -7.21992e-07 2.40976e-05 7.39154e-06 2.43994e-06 -9.51286e-05)
(9.81749e-05 -1.94568e-06 2.50563e-05 1.86539e-05 6.13287e-06 -9.5678e-05)
(9.5107e-05 -6.57026e-06 2.78952e-05 4.69284e-05 1.66844e-05 -9.48935e-05)
(8.0523e-05 -1.80435e-05 3.69518e-05 0.000104371 4.35402e-05 -7.46868e-05)
(9.19771e-05 -1.19996e-07 5.27533e-05 4.1251e-07 1.89361e-07 -9.69796e-05)
(9.2033e-05 4.3866e-08 5.27237e-05 1.88198e-07 -7.63712e-08 -9.69165e-05)
(9.21644e-05 2.08237e-07 5.26785e-05 2.75348e-07 -2.61271e-07 -9.7109e-05)
(9.20404e-05 3.69685e-07 5.27445e-05 5.68336e-07 -9.43086e-07 -9.6561e-05)
(9.1906e-05 9.10098e-07 5.26922e-05 1.52367e-06 -2.52041e-06 -9.62309e-05)
(9.1617e-05 2.40392e-06 5.24339e-05 4.08291e-06 -6.45223e-06 -9.58433e-05)
(9.25157e-05 6.90046e-06 5.25716e-05 9.95136e-06 -1.58036e-05 -9.48187e-05)
(9.69796e-05 1.56522e-05 5.48836e-05 2.56234e-05 -3.83027e-05 -9.55687e-05)
(8.38278e-05 3.8868e-05 5.47961e-05 9.81227e-05 -7.56676e-05 -0.000115612)
(4.06114e-05 1.00901e-07 8.5961e-05 1.00151e-07 -2.18314e-07 -5.60458e-05)
(4.05984e-05 3.31134e-08 8.5991e-05 2.27687e-07 6.50616e-09 -5.60638e-05)
(4.05633e-05 -2.51328e-08 8.60322e-05 4.87423e-07 1.83496e-07 -5.60277e-05)
(4.05522e-05 -1.31037e-07 8.60387e-05 1.15728e-06 4.08042e-07 -5.6031e-05)
(4.04876e-05 -3.80237e-07 8.60332e-05 3.05721e-06 9.58205e-07 -5.62742e-05)
(4.02935e-05 -9.12156e-07 8.59792e-05 8.19561e-06 2.56729e-06 -5.70438e-05)
(4.00637e-05 -1.98694e-06 8.63188e-05 2.09003e-05 7.20985e-06 -5.80146e-05)
(4.02745e-05 -5.44294e-06 8.75936e-05 5.17539e-05 1.8319e-05 -5.78102e-05)
(4.57736e-05 -1.18501e-05 8.32489e-05 0.000115958 4.36434e-05 -4.87462e-05)
(7.25472e-05 -5.75714e-08 0.000114753 8.35785e-07 2.14542e-07 -6.14088e-05)
(7.246e-05 9.78348e-08 0.000114611 2.19897e-07 -9.91119e-08 -6.1242e-05)
(7.2972e-05 2.28432e-07 0.000114682 2.36555e-07 -3.57138e-07 -6.13865e-05)
(7.30825e-05 4.11059e-07 0.000114635 5.39283e-07 -9.40056e-07 -6.1351e-05)
(7.29312e-05 8.06285e-07 0.000114702 1.16392e-06 -2.34582e-06 -6.09219e-05)
(7.05002e-05 3.06845e-07 0.00011492 2.74444e-06 -6.982e-06 -5.81867e-05)
(5.73701e-05 9.28758e-06 0.000102821 1.19347e-05 -1.32418e-05 -6.23093e-05)
(4.09708e-05 1.75773e-05 0.000119636 2.66634e-05 -3.71118e-05 -3.67758e-05)
(0.000103813 3.2728e-05 7.70012e-05 9.82856e-05 -8.10089e-05 -0.00012621)
(4.12943e-05 5.85423e-08 0.000106926 -2.02748e-07 -1.25002e-08 -4.89079e-05)
(4.12593e-05 3.37341e-08 0.000106993 1.95311e-07 4.31709e-08 -4.89526e-05)
(4.12241e-05 -2.95215e-09 0.00010707 5.11957e-07 1.76133e-07 -4.89626e-05)
(4.12333e-05 -1.1317e-07 0.000107139 1.17423e-06 4.34082e-07 -4.90051e-05)
(4.12744e-05 -5.27608e-07 0.000107134 2.83199e-06 8.15467e-07 -4.92402e-05)
(4.13705e-05 -1.51668e-06 0.00010652 7.9352e-06 1.38785e-06 -5.10179e-05)
(4.14853e-05 -3.02101e-06 0.000105464 2.20131e-05 6.1502e-06 -5.61162e-05)
(4.04764e-05 -7.37332e-06 0.000105784 5.17767e-05 1.91727e-05 -5.48329e-05)
(4.72836e-05 -1.6852e-05 9.68328e-05 0.000113611 4.36612e-05 -4.86691e-05)
(6.81176e-05 -1.96155e-08 6.08401e-05 3.83223e-07 -2.2922e-10 -9.23073e-05)
(6.82547e-05 9.6401e-08 6.08781e-05 8.71298e-08 -1.89803e-07 -9.22266e-05)
(6.88363e-05 1.29605e-07 6.00354e-05 3.86989e-07 -6.51674e-07 -9.35963e-05)
(6.87803e-05 6.46989e-07 5.9957e-05 8.45758e-07 -1.20923e-06 -9.33457e-05)
(6.86317e-05 1.41584e-06 6.0119e-05 2.25181e-06 -3.11478e-06 -9.31228e-05)
(6.78516e-05 1.41193e-06 6.34664e-05 6.08694e-06 -9.24153e-06 -8.99513e-05)
(8.36251e-05 5.0382e-06 8.99904e-05 1.96722e-05 -8.27573e-06 -8.52166e-05)
(7.52322e-05 2.07129e-05 7.40856e-05 3.35872e-05 -3.53006e-05 -9.22757e-05)
(8.49777e-05 4.28608e-05 7.80697e-05 0.000101038 -7.75427e-05 -0.00012667)
(4.89812e-05 3.79795e-09 0.000115357 -3.85337e-07 7.7599e-08 -5.83989e-05)
(4.89603e-05 3.31657e-08 0.000115387 1.9698e-07 8.12584e-08 -5.84937e-05)
(4.88808e-05 1.95931e-08 0.000115497 7.05024e-07 2.22748e-07 -5.862e-05)
(4.88437e-05 -1.55725e-07 0.000115546 1.73751e-06 6.61304e-07 -5.87307e-05)
(4.89952e-05 -7.37091e-07 0.000115592 3.98547e-06 1.67793e-06 -5.87984e-05)
(5.03948e-05 -2.86064e-06 0.000115313 8.10773e-06 3.45258e-06 -5.88249e-05)
(5.08078e-05 -8.0347e-06 0.000104865 1.95707e-05 3.64786e-06 -6.73982e-05)
(5.39861e-05 -5.12375e-06 0.000113923 5.39722e-05 2.0342e-05 -6.15332e-05)
(6.04489e-05 -1.66965e-05 0.000102973 0.000116121 4.57691e-05 -5.51529e-05)
(0.000194474 3.97126e-08 5.84961e-05 4.23645e-07 -5.65849e-08 -0.000183833)
(0.000194475 1.24308e-07 5.84667e-05 1.63812e-07 -2.31496e-07 -0.000183729)
(0.000194436 2.86498e-07 5.84604e-05 3.43332e-07 -5.66886e-07 -0.000183617)
(0.000194355 7.06362e-07 5.84578e-05 8.53294e-07 -1.39021e-06 -0.000183391)
(0.000194284 1.88632e-06 5.84965e-05 2.27552e-06 -3.22607e-06 -0.00018316)
(0.000199827 1.04823e-05 5.5908e-05 5.90756e-06 -2.94319e-06 -0.000187846)
(0.00018442 1.06643e-05 8.25426e-05 7.04843e-06 -1.86884e-05 -0.000139104)
(0.000168172 1.34006e-05 7.42786e-05 2.78895e-05 -4.41689e-05 -0.000147233)
(0.000186553 8.10053e-05 6.9647e-05 0.000109652 -6.84079e-05 -0.00018625)
(7.62138e-05 -9.16755e-08 0.000145303 -4.25052e-07 1.79261e-07 -5.80261e-05)
(7.61742e-05 -4.61669e-08 0.000145337 2.54478e-07 1.28511e-07 -5.80735e-05)
(7.61679e-05 -8.73996e-08 0.000145333 7.32986e-07 2.65124e-07 -5.81388e-05)
(7.61905e-05 -2.21395e-07 0.000145343 1.81239e-06 6.57417e-07 -5.82784e-05)
(7.62554e-05 -5.22446e-07 0.000145396 4.33134e-06 1.78724e-06 -5.8457e-05)
(7.6053e-05 -1.54718e-06 0.000145546 9.60864e-06 4.3731e-06 -5.76095e-05)
(7.60582e-05 -2.74719e-06 0.000145266 2.22278e-05 8.97279e-06 -5.61966e-05)
(7.84367e-05 -5.19747e-06 0.000144246 5.64687e-05 1.88823e-05 -6.16126e-05)
(9.54564e-05 -1.48565e-05 0.000128001 0.000121201 4.07555e-05 -6.08016e-05)
(0.000114441 -6.90825e-08 0.000206871 -1.40058e-07 -1.30728e-07 -3.69381e-05)
(0.000114506 1.04252e-07 0.000206866 1.07758e-07 -2.28819e-07 -3.69846e-05)
(0.000114515 2.60003e-07 0.00020686 3.22451e-07 -5.69622e-07 -3.69733e-05)
(0.000114579 6.37235e-07 0.000206772 7.52036e-07 -1.35564e-06 -3.68939e-05)
(0.000114733 1.54323e-06 0.000206554 1.75556e-06 -3.15803e-06 -3.68207e-05)
(0.000115362 4.2013e-06 0.000204595 4.32947e-06 -7.32256e-06 -3.76436e-05)
(0.00011455 1.04852e-05 0.000202337 1.11485e-05 -1.80566e-05 -3.84133e-05)
(0.000111088 2.14826e-05 0.000206133 2.92793e-05 -4.44068e-05 -3.42378e-05)
(0.000101837 1.68888e-05 0.000215945 0.00012286 -0.000107558 -4.69028e-05)
(0.000156449 -1.0468e-07 0.000156881 1.97701e-07 1.53958e-07 -8.64982e-05)
(0.000156402 -6.62082e-08 0.000157002 3.87048e-07 1.58094e-07 -8.66637e-05)
(0.000156397 -9.10746e-08 0.000157031 7.80424e-07 2.82763e-07 -8.6674e-05)
(0.000156373 -2.03294e-07 0.000157102 1.83632e-06 6.76251e-07 -8.67517e-05)
(0.00015627 -4.53082e-07 0.000157259 4.4393e-06 1.62241e-06 -8.69515e-05)
(0.000155898 -1.16912e-06 0.000157619 1.08988e-05 3.86767e-06 -8.74359e-05)
(0.000155126 -3.57997e-06 0.000158325 2.67963e-05 9.34804e-06 -8.85456e-05)
(0.00015432 -1.08321e-05 0.000157366 6.42805e-05 2.17285e-05 -8.97318e-05)
(0.000160888 -3.1643e-05 0.000137653 0.000139435 4.29631e-05 -8.09052e-05)
(0.00024883 -6.09756e-09 0.000201652 -3.74349e-07 -6.98763e-08 -0.000293448)
(0.000249424 1.14737e-07 0.000201915 8.52647e-08 -2.28363e-07 -0.00029325)
(0.000249376 3.57431e-07 0.000201965 3.95281e-07 -6.77583e-07 -0.000293191)
(0.000249282 8.90895e-07 0.000201956 9.52198e-07 -1.66622e-06 -0.000292867)
(0.000249104 2.17244e-06 0.000201884 2.27924e-06 -4.034e-06 -0.0002921)
(0.000248625 5.249e-06 0.000201698 5.52183e-06 -9.7766e-06 -0.000290273)
(0.000247178 1.26129e-05 0.000201731 1.40555e-05 -2.34809e-05 -0.00028642)
(0.000241574 2.82897e-05 0.000205026 4.29569e-05 -4.83914e-05 -0.000281793)
(0.000220245 4.91905e-05 0.000181678 0.000155666 -8.32889e-05 -0.000172069)
(0.000160823 -1.43327e-07 0.000203966 5.4872e-07 1.27205e-07 -7.86632e-05)
(0.000160848 -7.36903e-08 0.00020393 5.61173e-07 2.13183e-07 -7.84839e-05)
(0.000160872 -1.23859e-07 0.000203943 1.01943e-06 3.92121e-07 -7.84722e-05)
(0.000160895 -2.92325e-07 0.000203989 2.38088e-06 9.25506e-07 -7.86211e-05)
(0.00016094 -7.26208e-07 0.000204079 5.72759e-06 2.19052e-06 -7.90087e-05)
(0.000161069 -1.97433e-06 0.000204195 1.38845e-05 5.16425e-06 -7.99826e-05)
(0.000161661 -6.0273e-06 0.000203823 3.34369e-05 1.25593e-05 -8.2231e-05)
(0.000165851 -1.80582e-05 0.000198548 7.53537e-05 3.01724e-05 -8.47558e-05)
(0.000197086 -4.89651e-05 0.000157253 0.000137159 5.6202e-05 -5.59343e-05)
(8.80464e-05 -2.43454e-07 0.000223006 5.41287e-07 2.99985e-07 -0.000134298)
(8.81627e-05 1.08199e-07 0.000222236 3.40863e-07 -1.46055e-07 -0.000134726)
(8.82183e-05 4.48729e-07 0.000222205 5.40514e-07 -7.4144e-07 -0.000134798)
(8.83593e-05 1.15086e-06 0.000222095 1.20486e-06 -1.8928e-06 -0.000134702)
(8.86485e-05 2.80605e-06 0.000221827 2.84658e-06 -4.5814e-06 -0.000134396)
(8.91503e-05 6.68197e-06 0.000221322 6.8219e-06 -1.0987e-05 -0.00013361)
(8.88285e-05 1.54913e-05 0.000221548 1.75456e-05 -2.61441e-05 -0.000132516)
(8.01589e-05 3.10279e-05 0.000230799 5.59484e-05 -6.09699e-05 -0.000136363)
(7.59561e-05 2.94275e-06 0.000260989 0.000234978 -0.000100264 -0.000163271)
(0.000210916 2.10386e-07 0.000169247 6.57959e-07 -1.61704e-07 -5.97051e-05)
(0.000210868 7.22145e-09 0.000169268 6.62342e-07 1.41452e-07 -5.9686e-05)
(0.000210815 -1.74288e-07 0.000169295 1.25157e-06 4.29479e-07 -5.96981e-05)
(0.00021072 -4.74107e-07 0.000169369 2.88197e-06 1.01948e-06 -5.98108e-05)
(0.000210519 -1.18733e-06 0.000169534 6.93109e-06 2.40933e-06 -6.01223e-05)
(0.000210151 -3.21108e-06 0.000169828 1.67954e-05 5.82735e-06 -6.08308e-05)
(0.000209861 -1.00213e-05 0.000169837 3.99165e-05 1.5115e-05 -6.15809e-05)
(0.000211544 -3.29614e-05 0.00016627 8.7882e-05 4.14644e-05 -5.68477e-05)
(0.000221265 -8.55067e-05 0.000148232 0.00016844 9.17478e-05 -2.35994e-05)
(0.000103609 8.67912e-07 0.000292857 5.88933e-07 9.60105e-07 3.32118e-05)
(9.85134e-05 5.39444e-07 0.000292438 2.99174e-07 3.97825e-08 3.89563e-05)
(9.87712e-05 7.35947e-07 0.000292395 6.09759e-07 -7.2681e-07 3.88037e-05)
(9.89151e-05 1.74756e-06 0.000292233 1.39259e-06 -1.78964e-06 3.9017e-05)
(9.91916e-05 4.12646e-06 0.000291866 3.20573e-06 -4.22227e-06 3.95569e-05)
(9.95461e-05 9.56344e-06 0.000291254 7.47653e-06 -9.81636e-06 4.06024e-05)
(9.74217e-05 2.16642e-05 0.000292235 1.96256e-05 -2.24561e-05 4.10262e-05)
(7.71265e-05 4.13487e-05 0.000307046 6.99947e-05 -4.82556e-05 3.0782e-05)
(7.93422e-05 2.20244e-05 0.000314126 0.000275658 -1.45889e-05 -9.36928e-06)
(0.000173113 1.93038e-08 0.000176936 4.26442e-07 6.29283e-08 0.000126293)
(0.000172703 -2.8608e-08 0.000176932 6.66762e-07 2.4362e-07 0.000126539)
(0.000172556 -2.83609e-07 0.00017697 1.4485e-06 4.40509e-07 0.000126609)
(0.000172422 -7.34092e-07 0.000177089 3.3594e-06 9.64823e-07 0.000126577)
(0.000172148 -1.78504e-06 0.00017736 7.96495e-06 2.22536e-06 0.00012643)
(0.000171796 -4.67619e-06 0.000177771 1.89701e-05 5.46609e-06 0.000125982)
(0.000172445 -1.5241e-05 0.000177345 4.44433e-05 1.48655e-05 0.000124895)
(0.000177538 -5.04213e-05 0.00017148 9.65624e-05 4.28729e-05 0.00012609)
(0.000198795 -0.000124916 0.000145086 0.000185172 9.20605e-05 0.000139162)
(-7.52339e-05 3.01486e-08 0.000105188 1.13792e-06 8.27451e-08 0.000370794)
(-7.50986e-05 4.19933e-07 0.000105127 4.74238e-07 -2.37002e-07 0.000370831)
(-7.4977e-05 1.08891e-06 0.000105091 7.92634e-07 -6.74795e-07 0.000370853)
(-7.48129e-05 2.56102e-06 0.000104983 1.72238e-06 -1.5829e-06 0.000370932)
(-7.45179e-05 5.80375e-06 0.000104746 3.79792e-06 -3.59907e-06 0.000371154)
(-7.47613e-05 1.27854e-05 0.000104439 8.56316e-06 -8.08371e-06 0.000371663)
(-8.08586e-05 2.72148e-05 0.000105593 2.1986e-05 -1.86627e-05 0.000372206)
(-0.000120705 4.77996e-05 0.000117468 7.62137e-05 -5.02576e-05 0.000369724)
(-0.000151854 -1.33191e-05 0.000174902 0.000296457 -0.000115121 0.000300672)
(4.40541e-05 -1.20002e-07 0.000111278 7.38286e-07 2.15613e-08 0.000282306)
(4.39478e-05 -1.68323e-07 0.000111295 8.80004e-07 1.08418e-07 0.000282309)
(4.38262e-05 -4.32422e-07 0.00011132 1.77971e-06 2.66919e-07 0.000282309)
(4.35986e-05 -1.03689e-06 0.000111396 3.99571e-06 5.82989e-07 0.000282299)
(4.30939e-05 -2.55858e-06 0.000111543 9.18651e-06 1.11797e-06 0.000282314)
(4.15427e-05 -6.75956e-06 0.000111059 2.10244e-05 2.70122e-06 0.000283266)
(4.16562e-05 -2.04304e-05 0.000110715 4.70568e-05 8.08052e-06 0.000283455)
(5.07486e-05 -6.41085e-05 0.000107421 9.79269e-05 2.38716e-05 0.000280887)
(0.00010105 -0.000150872 0.00010057 0.000179151 6.19321e-05 0.000258147)
(-0.000100954 -8.07114e-08 7.92459e-05 1.04305e-06 -3.48745e-08 0.000210432)
(-0.000100787 5.76224e-07 7.91509e-05 6.14751e-07 -6.8424e-08 0.000210456)
(-0.000100628 1.56771e-06 7.89778e-05 1.07022e-06 -1.63532e-07 0.000210484)
(-0.000100353 3.70537e-06 7.85927e-05 2.35279e-06 -4.03982e-07 0.000210545)
(-9.98547e-05 8.48681e-06 7.77968e-05 5.33068e-06 -8.94506e-07 0.000210684)
(-9.97331e-05 1.91576e-05 7.64712e-05 1.24926e-05 -1.82403e-06 0.000210956)
(-0.000105485 4.25814e-05 7.60194e-05 3.26437e-05 -3.07877e-06 0.00021126)
(-0.000143827 8.63765e-05 8.44243e-05 0.0001044 1.64469e-07 0.000211932)
(-0.000204743 7.24199e-05 0.000107051 0.000363655 4.2515e-05 0.000233019)
(-3.68536e-05 2.83833e-08 -7.80616e-05 3.00999e-07 1.01691e-08 0.000275444)
(-3.69728e-05 -1.92558e-07 -7.80504e-05 9.37639e-07 2.98207e-08 0.000275461)
(-3.71155e-05 -5.79436e-07 -7.79821e-05 2.05778e-06 9.16412e-08 0.000275432)
(-3.74014e-05 -1.38841e-06 -7.78378e-05 4.69685e-06 2.15944e-07 0.000275335)
(-3.80246e-05 -3.34116e-06 -7.75158e-05 1.09314e-05 5.5797e-07 0.000275164)
(-3.91229e-05 -8.6943e-06 -7.68394e-05 2.54684e-05 1.7376e-06 0.000274855)
(-3.94931e-05 -2.48445e-05 -7.50397e-05 5.77458e-05 6.02917e-06 0.00027438)
(-2.96846e-05 -6.87703e-05 -6.79201e-05 0.000119595 2.06128e-05 0.00027413)
(4.49387e-05 -0.000142743 -3.1885e-05 0.00021343 5.63694e-05 0.000272052)
(-2.48154e-05 -2.53387e-07 -9.56712e-05 8.95958e-07 6.31556e-08 0.000290533)
(-2.46502e-05 4.21404e-07 -9.57433e-05 5.32752e-07 -2.37391e-08 0.000290514)
(-2.44943e-05 1.27152e-06 -9.57398e-05 8.44862e-07 -3.43583e-08 0.000290508)
(-2.42313e-05 3.00742e-06 -9.56871e-05 1.7989e-06 -6.28853e-08 0.000290512)
(-2.37439e-05 6.82692e-06 -9.55869e-05 3.99438e-06 -1.18621e-07 0.0002905)
(-2.34359e-05 1.52437e-05 -9.53387e-05 9.09805e-06 -3.00065e-07 0.000290476)
(-2.70997e-05 3.37958e-05 -9.52447e-05 2.27018e-05 -1.20608e-06 0.000290345)
(-5.44512e-05 7.36292e-05 -9.65162e-05 7.01098e-05 -7.77981e-06 0.000289438)
(-0.00015004 0.000112996 -5.92104e-05 0.000276881 -3.78504e-05 0.000276805)
(-2.97412e-05 9.152e-08 2.95848e-06 -3.63141e-08 -1.1184e-08 0.000267328)
(-2.98804e-05 -1.34246e-07 2.94627e-06 8.84651e-07 -3.7848e-08 0.000267305)
(-3.00106e-05 -4.73768e-07 2.93206e-06 1.9004e-06 -7.43364e-08 0.000267299)
(-3.02558e-05 -1.15069e-06 2.89051e-06 4.24271e-06 -1.43937e-07 0.000267296)
(-3.07746e-05 -2.73166e-06 2.78685e-06 9.73293e-06 -2.82055e-07 0.000267286)
(-3.16479e-05 -6.96365e-06 2.53098e-06 2.24385e-05 -5.51454e-07 0.000267229)
(-3.20861e-05 -1.97484e-05 1.9156e-06 5.12036e-05 -1.33076e-06 0.000266848)
(-2.6467e-05 -5.70153e-05 -1.89815e-06 0.000111893 -3.06368e-06 0.000264738)
(1.23345e-06 -0.000131554 -1.80076e-05 0.000225302 1.23872e-07 0.000255571)
(9.02208e-05 -9.91584e-08 -5.50495e-05 -4.40451e-07 -2.13474e-07 -6.20865e-05)
(9.01612e-05 -3.83335e-08 -5.50367e-05 3.62876e-08 -1.50932e-07 -6.21479e-05)
(9.00674e-05 -1.40439e-07 -5.49453e-05 3.36036e-07 -4.1577e-07 -6.2244e-05)
(9.0433e-05 -7.82905e-07 -5.472e-05 9.38192e-07 -1.15759e-06 -6.2824e-05)
(9.42177e-05 -1.44908e-06 -5.49747e-05 1.25179e-06 -2.94278e-06 -6.44592e-05)
(9.23887e-05 -1.4618e-06 -5.37808e-05 4.30506e-06 -7.7294e-06 -6.3116e-05)
(9.24182e-05 -6.10784e-06 -5.24188e-05 1.1407e-05 -1.91818e-05 -6.1791e-05)
(9.74039e-05 -1.64433e-05 -5.17001e-05 3.0143e-05 -4.85115e-05 -6.36543e-05)
(9.31669e-05 -4.23618e-05 -6.59839e-05 0.000110699 -0.000118075 -7.87258e-05)
(1.5006e-05 -1.90686e-08 -3.89473e-05 -2.36132e-07 -2.0765e-07 -7.01334e-05)
(1.46301e-05 4.11621e-07 -3.90394e-05 -1.77251e-07 -3.80671e-07 -6.95474e-05)
(1.09505e-05 7.07702e-07 -3.82082e-05 6.12667e-07 -7.97595e-07 -6.73528e-05)
(9.85836e-06 -1.11158e-06 -3.76932e-05 2.30132e-06 -8.53077e-07 -6.74873e-05)
(3.31859e-05 -1.62141e-06 -4.09435e-05 4.60197e-06 -1.47477e-06 -6.04125e-05)
(1.29734e-05 -2.13407e-06 -3.80277e-05 7.92458e-06 -1.08111e-05 -6.9398e-05)
(1.51292e-05 -9.41029e-06 -3.62283e-05 2.19765e-05 -2.42338e-05 -7.19113e-05)
(3.26381e-05 -1.68619e-05 -4.0029e-05 8.4734e-05 -2.5492e-05 -6.18607e-05)
(5.15362e-05 -6.02872e-05 -2.97981e-05 0.000311642 -6.51974e-05 -7.20563e-05)
(9.86709e-05 -3.67908e-08 -2.52225e-05 9.94883e-07 4.39573e-07 -6.24624e-05)
(9.94913e-05 -2.62228e-07 -2.59966e-05 5.04943e-07 5.88873e-07 -6.02556e-05)
(0.000105181 -3.41718e-07 1.82982e-06 7.38079e-08 2.07672e-07 -5.97391e-05)
(0.000105276 -7.19149e-07 1.0767e-07 8.87355e-07 -1.88388e-06 -6.18419e-05)
(0.000109856 -2.97098e-06 3.16219e-06 2.89259e-06 -4.5415e-06 -6.325e-05)
(9.99772e-05 -1.83883e-06 -2.55791e-05 1.52714e-05 -5.04196e-06 -6.21514e-05)
(9.97729e-05 -6.78357e-06 -2.59397e-05 3.37858e-05 -1.39597e-05 -6.39441e-05)
(0.00011213 -2.38738e-05 8.49939e-06 4.82312e-05 -6.31407e-05 -5.96134e-05)
(0.000130808 -9.67178e-05 1.59454e-05 0.000132815 -0.00014692 -8.20258e-05)
(0.000100676 1.9807e-07 -4.05885e-05 -9.7301e-07 -3.08115e-07 -7.39321e-05)
(0.000100873 7.30192e-08 -4.038e-05 4.63441e-07 2.04169e-09 -7.56935e-05)
(9.98897e-05 -1.72866e-06 -4.14668e-05 1.42756e-07 1.08151e-06 -7.1327e-05)
(9.89359e-05 -7.59789e-07 -4.26624e-05 8.43083e-07 -1.55175e-06 -7.07892e-05)
(9.89128e-05 -8.35168e-07 -4.26241e-05 2.30374e-06 -4.85009e-06 -7.01699e-05)
(0.000101718 -3.1885e-06 -3.83086e-05 7.03453e-06 -1.2775e-05 -7.58729e-05)
(0.000102048 -1.03974e-05 -3.76868e-05 1.71045e-05 -2.69472e-05 -7.4352e-05)
(0.000103505 -2.96263e-05 -3.52014e-05 4.39883e-05 -6.44277e-05 -6.90879e-05)
(0.000116769 -8.22795e-05 -2.2277e-05 0.000144478 -0.000157779 -9.24752e-05)
(5.88684e-05 -2.14455e-08 -7.90536e-05 3.19899e-08 -1.23167e-07 -3.89269e-05)
(5.84952e-05 9.32019e-07 -7.94034e-05 1.19818e-07 -8.32697e-07 -3.83523e-05)
(5.98638e-05 5.02693e-07 -7.8086e-05 4.18844e-07 -1.10727e-06 -3.98762e-05)
(6.31335e-05 -6.3158e-07 -7.50517e-05 1.14138e-06 -1.83931e-06 -4.3727e-05)
(6.37081e-05 -2.99697e-06 -7.45344e-05 2.69695e-06 -3.84767e-06 -4.39617e-05)
(6.25695e-05 -4.73528e-06 -7.55494e-05 6.66562e-06 -1.11881e-05 -4.13872e-05)