/*--------------------------------*- C++ -*----------------------------------*\
| =========                 |                                                 |
| \\      /  F ield         | foam-extend: Open Source CFD                    |
|  \\    /   O peration     | Version:     3.1                                |
|   \\  /    A nd           | Web:         http://www.extend-project.de       |
|    \\/     M anipulation  |                                                 |
\*---------------------------------------------------------------------------*/
FoamFile
{
    version     2.0;
    format      ascii;
    class       volScalarField;
    location    "345600";
    object      DEpsilonSum;
}
// * * * * * * * * * * * * * * * * * * * * * * * * * * * * * * * * * * * * * //

dimensions      [0 0 0 0 0 0 0];

internalField   nonuniform List<scalar> 
23248
(
0.000144898
0.000144965
0.000145052
0.000145415
0.000146675
0.000148301
0.000154517
0.000179932
0.000291252
0.000131212
0.000131331
0.000131646
0.000132744
0.000134366
0.000137938
0.000148356
0.000180401
0.000264522
0.000116037
0.000115962
0.000116035
0.000116292
0.000117018
0.000119017
0.00012549
0.000151446
0.000268494
0.0001034
0.000103353
0.000103497
0.000103958
0.000105295
0.000108866
0.000119499
0.000154512
0.000254131
7.12318e-05
7.13434e-05
7.1442e-05
7.17001e-05
7.24226e-05
7.46139e-05
8.2127e-05
0.000112469
0.000235247
9.34907e-05
9.35949e-05
9.37237e-05
9.41473e-05
9.53113e-05
9.85983e-05
0.000108637
0.000141995
0.000238481
0.000132703
0.000132869
0.000132942
0.000133135
0.000133702
0.000135225
0.000140052
0.000159785
0.000257945
0.000135635
0.000135549
0.000135647
0.000136021
0.000137051
0.000139843
0.000147891
0.000173241
0.00024947
0.000254772
0.000254908
0.000254971
0.000255162
0.000255993
0.000257277
0.00026102
0.000273163
0.000314209
0.000144958
0.000144919
0.000145042
0.000145475
0.00014658
0.00014945
0.000157263
0.000179517
0.000242118
-4.95565e-06
-4.93593e-06
-4.8643e-06
-4.53961e-06
-3.60063e-06
-1.00049e-06
7.14562e-06
3.75098e-05
0.000192513
5.80397e-05
5.80345e-05
5.81199e-05
5.85287e-05
5.96842e-05
6.29919e-05
7.2894e-05
0.000103351
0.000183911
5.87508e-05
5.85526e-05
5.85986e-05
5.88585e-05
5.95087e-05
6.04255e-05
6.72004e-05
9.52979e-05
0.000207514
9.57288e-05
9.55812e-05
9.56942e-05
9.61253e-05
9.73107e-05
0.000100503
0.000109699
0.00013723
0.000208821
0.000144557
0.000144328
0.000144315
0.000144511
0.000145137
0.000148474
0.00015285
0.000167991
0.000232872
0.000117699
0.000118023
0.000118194
0.000118636
0.000119752
0.000122747
0.000130519
0.000151736
0.00020533
0.000121904
0.00012181
0.000121967
0.000122149
0.000122696
0.000124242
0.000130934
0.000155621
0.000225024
0.000103768
0.000103868
0.000104071
0.000104536
0.000105727
0.000108956
0.000118638
0.00014752
0.000220499
0.00016144
0.000160877
0.000161398
0.000161672
0.000162187
0.000162351
0.00014363
0.000174244
0.000253196
0.000128812
0.000129103
0.000129365
0.000129882
0.000130952
0.000133216
0.000140754
0.000166565
0.000230696
0.000100676
0.000100658
0.000100685
0.000100951
0.000102005
0.000107301
0.000155621
0.00015136
0.000239881
0.000140416
0.000140786
0.000141123
0.000141805
0.000143526
0.000147433
0.000142589
0.000185293
0.000246715
0.000236021
0.000235855
0.000235937
0.000236205
0.00023713
0.000245212
0.000246331
0.0002411
0.000343698
0.000196768
0.000197185
0.000197456
0.000198127
0.00019982
0.000203711
0.000212861
0.000238119
0.000297007
0.000307254
0.000307432
0.000307569
0.000307834
0.000308404
0.000308156
0.000309764
0.00032955
0.000417529
0.000277042
0.000277159
0.000277413
0.000278062
0.000279611
0.000283398
0.000293264
0.000318535
0.000376375
0.000360459
0.000361659
0.000361866
0.000362208
0.000363056
0.000365171
0.000371307
0.000393372
0.000475723
0.000329579
0.00032965
0.000329967
0.000330796
0.000332815
0.000337758
0.00035001
0.000379406
0.000437909
0.000257688
0.000256691
0.000256823
0.000257353
0.000258672
0.000262045
0.000271876
0.000309719
0.000495706
0.000356395
0.000356371
0.000356649
0.000357451
0.00035948
0.000364671
0.000378405
0.000416007
0.000513159
0.000435194
0.000434324
0.000434554
0.000435083
0.000436336
0.000439379
0.000447902
0.000481807
0.000631499
0.000428747
0.000428656
0.000428914
0.000429626
0.000431356
0.00043568
0.00044722
0.000484248
0.000596692
0.000498836
0.000498595
0.000498786
0.000499318
0.000500592
0.000503605
0.000511445
0.000542433
0.000682684
0.000435227
0.000435241
0.000435504
0.000436192
0.000437887
0.000442396
0.000454036
0.000489669
0.000598015
0.000278559
0.000278342
0.000278579
0.00027926
0.000280975
0.000285684
0.000301468
0.000367667
0.00063925
0.000375889
0.000376139
0.000376502
0.000377359
0.000379558
0.000385397
0.000401975
0.000451963
0.000580096
0.000408159
0.000408082
0.000408258
0.000408737
0.000409849
0.00041247
0.000419724
0.000448647
0.000592516
0.000347323
0.00034761
0.000347962
0.000348817
0.000350893
0.000356106
0.000370257
0.000414112
0.000543313
0.000127397
0.000127595
0.000127587
0.000128108
0.000132563
0.000132144
0.000138193
0.000168241
0.000286885
3.21614e-05
3.20109e-05
2.88433e-05
2.88524e-05
5.77815e-05
3.78957e-05
5.61937e-05
0.000140666
0.000444766
0.000122951
0.000124322
0.000126774
0.000127056
0.000134125
0.000133778
0.000147725
0.000194517
0.000369895
0.000128764
0.000129485
0.000129404
0.000129375
0.000130466
0.000134686
0.000145552
0.000188671
0.000367971
0.000120854
0.000121115
0.000120789
0.000120255
0.000121386
0.000125412
0.000137522
0.000185152
0.000358357
0.000151554
0.000151493
0.000150789
0.000151493
0.000153695
0.000157733
0.00016983
0.000216873
0.000356241
2.46609e-05
2.47849e-05
2.55793e-05
2.64144e-05
2.83745e-05
3.53309e-05
5.83543e-05
0.000135105
0.000393027
0.000187794
0.000187922
0.000188175
0.000188363
0.000189854
0.000193625
0.000206081
0.000255027
0.000439794
8.48611e-05
8.49207e-05
8.51044e-05
8.55884e-05
8.70682e-05
9.1919e-05
0.000109105
0.00016787
0.000367168
0.00019354
0.000193441
0.000193652
0.000195866
0.000188451
0.000196295
0.000210575
0.000256767
0.000416854
0.000279276
0.000279224
0.000279367
0.000279856
0.000278414
0.000284286
0.000293104
0.000326727
0.00046211
0.000260879
0.000260857
0.00026105
0.000261584
0.000262864
0.000266326
0.000277108
0.000318863
0.000489487
0.000233103
0.000232453
0.000232643
0.000233241
0.000234879
0.00023946
0.00025054
0.000297857
0.00047893
0.000349414
0.000350086
0.000350338
0.000350857
0.000351996
0.000354914
0.000365248
0.000396724
0.000530439
0.000343484
0.000343624
0.000343852
0.000344391
0.000345692
0.000349007
0.000358606
0.000392395
0.000532807
0.000270468
0.000270524
0.000270751
0.000271332
0.000272786
0.000276697
0.000288706
0.000331826
0.000500137
0.000163327
0.000163421
0.000163704
0.000164475
0.000166524
0.000171729
0.000188846
0.00024671
0.000420642
0.000295262
0.000295334
0.000295602
0.000296217
0.000297607
0.000301693
0.000313648
0.000354557
0.000505369
0.000208493
0.000208441
0.00020871
0.000209407
0.000211151
0.000215923
0.000230895
0.000282756
0.000453854
0.000113292
0.00011338
0.000113608
0.00011469
0.000116476
0.000120692
0.000132601
0.000169287
0.000265539
5.96109e-05
6.05386e-05
6.14912e-05
6.25385e-05
6.26365e-05
6.96767e-05
8.63795e-05
0.000121942
0.000230716
0.000118773
0.00011904
0.000129412
0.000130263
0.000133318
0.000126691
0.000139464
0.000195077
0.000309649
0.000105475
0.000105661
0.000106437
0.000106069
0.000107718
0.000112975
0.00012963
0.000183197
0.000318751
0.0001124
0.000113074
0.000113623
0.00011467
0.000116943
0.000123068
0.000141277
0.000198483
0.000349779
7.68319e-05
7.72106e-05
7.77353e-05
7.88886e-05
8.17933e-05
8.96207e-05
0.000112152
0.000180694
0.000353173
0.000106586
0.000107298
0.000107868
0.000109059
0.000112037
0.00011994
0.000142141
0.000207228
0.000366364
5.47e-05
5.52286e-05
5.57638e-05
5.7064e-05
6.05037e-05
6.98442e-05
9.65066e-05
0.000172935
0.000341182
0.000111589
0.000111927
0.000112382
0.000113517
0.000116575
0.000124698
0.000147058
0.000209361
0.000349897
0.000100499
0.000101139
0.000101649
0.000103292
0.000107024
0.000115505
0.000138842
0.000205513
0.000347443
0.000193462
0.00019384
0.000194351
0.000195615
0.000198618
0.00020599
0.000225656
0.000280337
0.000400977
0.000234996
0.000235074
0.000235437
0.000236376
0.000238715
0.000244797
0.000261492
0.000311674
0.00043797
0.000253742
0.000253778
0.00025403
0.000254711
0.000256414
0.000260837
0.00027397
0.000320505
0.000455823
0.000305742
0.000305808
0.000306084
0.000306742
0.000308318
0.000312359
0.000323727
0.000361391
0.000477379
0.000309603
0.000309628
0.000309949
0.000310744
0.000312605
0.00031707
0.000329254
0.00036716
0.000469291
0.000254612
0.000254795
0.000255166
0.000256091
0.000258326
0.000264118
0.000280102
0.00032789
0.000447442
0.000193212
0.000193391
0.000193764
0.000194676
0.000196907
0.00020285
0.000220931
0.000278717
0.000416514
0.000261987
0.000262202
0.000262637
0.000263657
0.000266043
0.00027188
0.000287445
0.000333423
0.000450968
0.000201552
0.000201825
0.000202305
0.000203431
0.000206093
0.000212785
0.00023155
0.000288212
0.000423632
0.000228298
0.000226811
0.000227549
0.000244945
0.000256965
0.000262741
0.000264262
0.000246427
0.000225282
0.0002471
0.000240113
0.000253472
0.000225505
0.000230326
0.000190784
0.000182058
0.00017511
0.000163164
0.000186201
0.000227151
0.000230608
0.000224636
0.000229462
0.000217842
0.00022114
0.000206455
0.000198069
0.000202919
0.000212882
0.000223377
0.000234102
0.000232426
0.000207594
0.000175191
0.000162579
0.000167075
0.000153864
0.000182519
0.00021682
0.000224844
0.000248924
0.000233308
0.000233003
0.000237961
0.000225182
0.00021194
0.000209006
0.000214902
0.00021858
0.000222298
0.000224452
0.000233858
0.000207176
0.000180817
0.000179132
0.000183007
0.00018787
0.000217041
0.00021063
0.000213616
0.000203052
0.000214951
0.000196744
0.000177158
0.000175331
0.000177403
0.000223337
0.000212034
0.000199659
0.00021191
0.000219138
0.000189807
0.000167068
0.000171602
0.000167577
0.000161702
0.00020618
0.000214801
0.000232987
0.000200308
0.000212008
0.000228301
0.000212143
0.000196185
0.000192642
0.000192576
0.000212771
0.000207266
0.00021887
0.000210788
0.000215263
0.000194644
0.000190048
0.000192858
0.000190592
0.000189779
0.00019699
0.00021306
0.000210421
0.000215802
0.00019259
0.000192656
0.00019607
0.000200514
0.000181142
0.000205776
0.000201396
0.000189378
0.000212716
0.000208212
0.000185745
0.000172797
0.000181169
0.000177578
0.000176219
0.000191159
0.000191845
0.000200957
0.000203786
0.000204471
0.00020168
0.000208894
0.000232015
0.000226785
0.00018656
0.000210329
0.000211351
0.00021379
0.000268921
0.000184307
0.000189466
0.000184258
0.000185747
0.000171066
0.000173304
0.000194284
0.000203187
0.00020229
0.000194052
0.000230116
0.000261783
0.00021717
0.000210738
0.000174603
0.000190848
0.000188756
0.000251733
0.000229347
0.000213448
0.000172689
0.000173656
0.000180656
0.000175248
0.000178356
0.000187362
0.000197574
0.000195561
0.000214845
0.000227179
0.000257942
0.000281247
0.00021596
0.000201055
0.000176967
0.000170739
0.000195564
0.000229569
0.000275142
0.000186705
0.000197117
0.000181554
0.000158175
0.000169539
0.00018877
0.000193955
0.00022015
0.000240792
0.000260379
0.00026044
0.000229729
0.000206085
0.000193595
0.000171972
0.000173468
0.000176589
0.000263211
0.000239472
0.000204272
0.000188446
0.000179
0.000172788
0.000167166
0.000179598
0.000192627
0.00021245
0.000234847
0.000269982
0.000268277
0.000251132
0.000220095
0.000196456
0.000175591
0.000146157
0.000176241
0.000210678
0.000236227
0.000262119
0.000203978
0.000204721
0.000165797
0.000186348
0.000190005
0.000201257
0.000231029
0.0002694
0.000266721
0.000251776
0.000223085
0.00019901
0.00019909
0.00014635
0.000154522
0.000179882
0.000184725
0.00026032
0.000240323
0.000199641
0.000179997
0.00017307
0.000181198
0.00020272
0.000207918
0.000220634
0.000248195
0.000266617
0.000258436
0.00022522
0.00019799
0.00017992
0.000180701
0.000167284
0.000137713
0.000181251
0.000200868
0.000226231
0.000190938
0.000212042
0.000191129
0.000204
0.000201066
0.000211101
0.000264613
0.000258769
0.000240651
0.000263146
0.000211936
0.000184591
0.000154585
0.000175349
0.000135481
0.000161627
0.000189712
0.000173976
0.000234541
0.00022566
0.000205072
0.000185958
0.000211685
0.000215656
0.000218178
0.000217516
0.000244753
0.000242125
0.000238038
0.000223804
0.000157384
0.000141466
0.000150811
0.000168304
0.000158953
0.00013699
0.000178495
0.000183424
0.000209449
0.000197473
0.00019796
0.000203434
0.000189039
0.000236384
0.000229396
0.000222268
0.000247792
0.000186331
0.000214237
0.000163485
0.000138353
0.000145609
0.000171912
0.000119392
0.000172741
0.000186585
0.000172068
0.000179138
0.000224453
0.000212701
0.000214785
0.000190219
0.000201943
0.000219591
0.000236609
0.000192869
0.000184757
0.000156858
0.000140791
0.000124818
0.000129132
0.000142084
0.000165054
0.000169495
0.000156541
0.000181028
0.000195284
0.000203904
0.000191394
0.000183127
0.000207377
0.000197883
0.000214881
0.000214573
0.000168873
0.000194613
0.000144651
0.000162869
0.000132382
0.000138859
0.000141518
0.000149039
0.000127477
0.000151541
0.000173943
0.00017523
0.00018327
0.00021159
0.000194072
0.000188051
0.000192845
0.000180314
0.000172355
0.000153059
0.000132282
0.000127167
0.00013242
0.000125646
0.000118979
0.000147723
0.000140387
0.000137564
0.000165766
0.000176885
0.00020389
0.000224033
0.000170265
0.000191049
0.00018292
0.00019068
0.000184479
0.00016
0.00016847
0.000132422
0.000148882
0.000121487
0.000155719
0.000125933
0.000130425
0.000133108
0.000169351
0.000169839
0.000160935
0.000193713
0.000201954
0.000170879
0.000175226
0.000192159
0.000164841
0.000171786
0.000144255
0.000106026
0.000105192
0.000118526
0.00012007
0.000120705
0.000129878
0.000138755
0.000133008
0.00015213
0.000187608
0.000174045
0.000197245
0.000221293
0.000171026
0.00017248
0.000165561
0.000167373
0.00014034
0.000138447
0.000123487
0.000130999
0.000113123
0.00014323
0.000110024
0.0001538
0.00012642
0.000125037
0.000156015
0.000164249
0.000160354
0.00018408
0.000217225
0.000172177
0.000171023
0.000167834
0.000149953
0.000136909
9.68735e-05
9.35509e-05
0.000107312
0.000100012
0.000113006
0.000113599
0.000127399
0.000144702
0.000120821
0.000131847
0.000167649
0.000187835
0.000191865
0.000220766
0.000172941
0.000148899
0.000152331
0.000128531
0.000128413
0.000109594
9.94544e-05
0.000113163
0.000132628
0.000107202
0.000134473
0.000113165
0.000154977
0.000122367
0.000135961
0.000173747
0.000177795
0.000171346
0.000202226
0.000164383
0.000144879
0.000125706
0.000117373
9.715e-05
8.39951e-05
7.83268e-05
8.23523e-05
9.1702e-05
9.52057e-05
0.000124292
0.000126286
0.00013757
0.000137083
0.000148624
0.000167294
0.00018235
0.000191234
0.000209565
0.00015581
0.000154602
0.000122734
0.00012201
9.84125e-05
9.01927e-05
8.91905e-05
9.60308e-05
0.000108647
0.000125066
0.000103192
0.000135006
0.000122215
0.000131316
0.000130271
0.000161524
0.000168436
0.000173928
0.000192771
0.000154393
0.0001309
0.000109829
8.78945e-05
7.83486e-05
8.13369e-05
7.35402e-05
7.8408e-05
8.27803e-05
0.000112183
0.000104567
0.000127358
0.000136841
0.000121872
0.000164959
0.000182966
0.00019053
0.000193671
0.000208627
0.000160118
0.000121965
0.000120966
9.18433e-05
8.50907e-05
7.96105e-05
7.8684e-05
8.5676e-05
8.68935e-05
0.000113486
0.000124961
0.000111102
0.000144388
0.000119531
0.000151112
0.000162144
0.000169823
0.000175832
0.000200931
0.000143564
0.000117405
9.6767e-05
7.75378e-05
7.45147e-05
6.96013e-05
6.95462e-05
6.74098e-05
8.51145e-05
8.9147e-05
0.000118498
0.000130519
0.000150869
0.00016717
0.000182923
0.000195818
0.000192601
0.000198455
0.000213624
0.000140252
0.00012577
9.63611e-05
8.06044e-05
7.76977e-05
7.18944e-05
6.7441e-05
6.99318e-05
8.5963e-05
8.84758e-05
0.000124174
0.000129927
0.000141689
0.000131983
0.000127904
0.000167455
0.000178853
0.000180124
0.000205648
0.000130695
0.000112216
9.86121e-05
8.7488e-05
7.36607e-05
6.87381e-05
6.61512e-05
7.62509e-05
7.55448e-05
9.69875e-05
0.000119058
0.000141747
0.000156641
0.000162145
0.000183602
0.000201349
0.000189532
0.000212392
0.000228522
0.000136529
0.000113682
9.06599e-05
7.99671e-05
7.31859e-05
6.87458e-05
6.44466e-05
6.53629e-05
7.14857e-05
9.24684e-05
0.00010039
0.000126816
0.000148775
0.000146451
0.000150215
0.000186723
0.000189901
0.000187333
0.000206632
0.000127634
0.000106224
0.000111354
9.41516e-05
8.13898e-05
7.43378e-05
7.07533e-05
7.48221e-05
9.32912e-05
0.000111517
0.000136268
0.000164653
0.000182937
0.000185627
0.000213719
0.000205466
0.000203444
0.000216307
0.00022867
0.000124895
0.00011584
0.000109443
8.23087e-05
7.78845e-05
6.796e-05
7.03005e-05
6.9343e-05
7.63779e-05
9.32675e-05
0.000118226
0.0001451
0.000164228
0.000166501
0.000174911
0.000195736
0.000201083
0.000195692
0.000209297
0.000122391
0.000123076
0.000102155
0.000103498
9.25569e-05
8.64509e-05
8.29329e-05
8.62781e-05
0.000106778
0.00012913
0.000160359
0.00018962
0.00020616
0.000211005
0.000214927
0.00020282
0.000200766
0.000214539
0.000225216
0.000115995
0.000105385
0.000118889
0.000104937
7.95495e-05
9.00297e-05
7.66918e-05
8.46284e-05
9.49185e-05
0.000115723
0.000140205
0.000170388
0.000186072
0.000189194
0.000191069
0.000205234
0.000203791
0.000189063
0.000206735
0.000130014
0.000120772
0.000121874
0.000102308
0.000110665
0.000102964
9.9172e-05
0.000109079
0.000124008
0.000152259
0.000189136
0.000212666
0.000220546
0.000216818
0.000213629
0.000185984
0.000183051
0.000209201
0.00022888
0.000125059
0.000115997
0.000103601
0.000115496
0.000115473
9.78816e-05
0.000114361
0.000110016
0.000131798
0.000136997
0.000162492
0.000193971
0.000207861
0.000202797
0.000198729
0.000196803
0.000186282
0.00018668
0.000206974
0.000393182
0.000539003
0.000394125
0.000345505
0.000404582
0.000336449
0.000338451
0.000285707
0.000267379
0.000256622
0.000257574
0.000255635
0.00028678
0.000283264
0.000256897
0.00022799
0.000229923
0.000240314
0.000236877
0.000435432
0.00043403
0.000349068
0.000312792
0.000342455
0.000327365
0.000312736
0.000288798
0.000265336
0.000274721
0.000281618
0.000253148
0.000297488
0.000284399
0.000235844
0.000213401
0.000236149
0.000225814
0.0002196
0.000463582
0.000441102
0.000315261
0.000303857
0.000348357
0.000361189
0.000366189
0.000314496
0.000330817
0.000325048
0.000288135
0.000281579
0.00028274
0.000279074
0.000239397
0.000224746
0.000236055
0.000228809
0.000221543
0.000379059
0.000370916
0.00030463
0.000293348
0.000317381
0.000306744
0.000287674
0.000307644
0.000314326
0.000294023
0.000252076
0.000261238
0.000290233
0.000259457
0.000232026
0.00027127
0.000229966
0.000211672
0.000207422
0.000394781
0.000436727
0.000304051
0.000306106
0.000318002
0.000302792
0.000356789
0.000283199
0.000341579
0.000323358
0.00031054
0.000273391
0.00030078
0.000277192
0.000240195
0.000251069
0.000235469
0.000220103
0.000222901
0.000356596
0.00034887
0.000298442
0.000279562
0.000283033
0.000284365
0.000270948
0.000271427
0.000293679
0.000307119
0.000337824
0.000256408
0.000282225
0.000276845
0.000241938
0.000254457
0.000233196
0.000204607
0.000195501
0.00044648
0.000372368
0.000272355
0.000268739
0.000291895
0.000305429
0.000294818
0.000315589
0.000308085
0.000257536
0.000272373
0.000292525
0.00027019
0.000263699
0.000255252
0.000261487
0.000230558
0.000232267
0.000224686
0.000383324
0.00032574
0.00028329
0.000255535
0.000259853
0.000270769
0.000262704
0.000262107
0.000270495
0.000280919
0.000279561
0.000287306
0.000272838
0.00024308
0.000249005
0.000258903
0.000242738
0.000239108
0.000187612
0.000384187
0.000374805
0.000286013
0.00027711
0.000274787
0.000267831
0.000258747
0.000271608
0.000297283
0.000259355
0.000279039
0.000310016
0.00027732
0.000248795
0.000248496
0.000252287
0.000234982
0.000212284
0.000184122
0.000368986
0.000329898
0.000275275
0.000251887
0.000247817
0.00024582
0.000245138
0.000254566
0.000257966
0.000257327
0.000279603
0.000310588
0.000268469
0.000244589
0.000260458
0.000270372
0.00024386
0.000218516
0.000176976
0.000287189
0.000425187
0.00027743
0.00027152
0.00025707
0.000237398
0.000260451
0.000264105
0.000284688
0.000251908
0.000282679
0.000296496
0.00026094
0.000284145
0.00024731
0.000284654
0.000232363
0.000186949
0.000169729
0.000308414
0.000326584
0.000257854
0.000244334
0.000225429
0.000219567
0.000222058
0.000239613
0.00024437
0.000236624
0.000281051
0.000304623
0.000254038
0.00025672
0.000267676
0.000290162
0.000220144
0.000179572
0.000166904
0.000430005
0.000335411
0.000233493
0.000258119
0.000248522
0.000217358
0.000234838
0.000263389
0.000280766
0.000249907
0.000262726
0.000260096
0.000263929
0.000270187
0.000285836
0.000249443
0.000195157
0.000165114
0.000163547
0.000339598
0.000283767
0.000236334
0.000239123
0.000227445
0.000205406
0.000208848
0.000226396
0.000235291
0.000241699
0.000274985
0.000256606
0.000249058
0.000257696
0.000288222
0.000251498
0.000179786
0.000177496
0.000170058
0.000370217
0.000312453
0.000253728
0.000282404
0.000223545
0.000225523
0.000231168
0.000228909
0.000251381
0.000226662
0.000255539
0.000274525
0.000268163
0.000284233
0.000287324
0.000221193
0.000174156
0.000170349
0.000175249
0.000322426
0.000282426
0.00023449
0.00024073
0.000231165
0.000215698
0.000206516
0.000219035
0.000222494
0.00022421
0.000236041
0.000275949
0.000238749
0.000265866
0.000276065
0.000211769
0.000182675
0.000188744
0.000188376
0.000438141
0.000261285
0.000243113
0.000233698
0.00023392
0.000230025
0.000219501
0.000246542
0.000215159
0.000210599
0.000263229
0.000262009
0.000261512
0.000268885
0.000247289
0.000207587
0.00019095
0.000201538
0.000211002
0.000348297
0.000267168
0.000227865
0.000216715
0.000226059
0.000221322
0.000213241
0.000212672
0.000213397
0.000225763
0.000234709
0.000239875
0.000224683
0.000256087
0.000229369
0.00019433
0.000195462
0.000212023
0.000206713
0.000414138
0.000295022
0.000211502
0.000282882
0.000244075
0.00022561
0.000273117
0.000242996
0.000265725
0.000237742
0.000275074
0.000245011
0.000270287
0.000263178
0.000230659
0.000213554
0.000213709
0.000229311
0.000225336
0.000341961
0.000285318
0.000236897
0.000227842
0.000212923
0.000222008
0.000219589
0.000218793
0.000218484
0.000224162
0.000235323
0.000223705
0.000246892
0.000231921
0.000219631
0.000184838
0.000220873
0.000234277
0.000209617
0.00043029
0.000313581
0.00024912
0.000247372
0.000252194
0.000258106
0.000241659
0.000257775
0.000244137
0.000244479
0.000241479
0.000225725
0.000241964
0.00023923
0.000200427
0.000206179
0.000240087
0.000240079
0.00020908
0.000368613
0.000282051
0.000246365
0.00022727
0.000214611
0.000245142
0.000231702
0.000222516
0.000223113
0.000225659
0.000226879
0.000210369
0.000214039
0.00021755
0.000187362
0.000198762
0.000233588
0.000232173
0.000185126
0.000464755
0.000341177
0.000266736
0.000210155
0.000285965
0.000280724
0.000258085
0.000260129
0.000240299
0.000178398
0.000246791
0.000226723
0.000248189
0.000227522
0.000196716
0.000218801
0.000246315
0.000226297
0.000185357
0.000413234
0.000321728
0.000268912
0.000257398
0.000242884
0.000271021
0.00024342
0.000232842
0.000228175
0.000211331
0.000211088
0.000200252
0.000233781
0.000196253
0.000187896
0.000211895
0.000229655
0.000211041
0.000177205
0.000553328
0.000410882
0.000316169
0.000299273
0.000309132
0.000284829
0.000302035
0.000284273
0.000248438
0.000214821
0.000244716
0.000219747
0.000221375
0.000198753
0.000204673
0.000209436
0.000223147
0.000208298
0.000185292
0.000519098
0.000397173
0.000315943
0.000307385
0.00028828
0.000278661
0.000281306
0.00026195
0.000232725
0.000205812
0.000214855
0.000194546
0.000220411
0.00017747
0.000171556
0.000203778
0.000219068
0.000206902
0.000184448
0.000671504
0.000437589
0.000357744
0.000395626
0.000312298
0.000371404
0.000300937
0.000277861
0.000263841
0.000253095
0.000271834
0.000188855
0.000184674
0.000195116
0.000202758
0.000201147
0.000209159
0.000209531
0.000184158
0.000591297
0.000462209
0.000368257
0.000341095
0.00032839
0.000303476
0.000316363
0.00027028
0.0002327
0.000215415
0.000221472
0.000175579
0.000189492
0.000171043
0.000184039
0.000193105
0.000203115
0.000203311
0.000180953
0.000725775
0.000526928
0.000464164
0.000498405
0.00040958
0.000423807
0.000338756
0.000313921
0.000288912
0.000238287
0.000246255
0.000178094
0.000180645
0.000184607
0.000186632
0.000195689
0.000199381
0.000190783
0.000169052
0.000686468
0.000536266
0.000482923
0.000437201
0.000405233
0.000375596
0.000336136
0.000301356
0.000250025
0.000227506
0.000215943
0.000164111
0.000190283
0.000174826
0.000182854
0.000177686
0.000202912
0.000189577
0.000169555
0.000813517
0.000647121
0.000521517
0.000537078
0.000527233
0.000404119
0.000419793
0.00031081
0.000302916
0.000215913
0.000207702
0.000192572
0.000194296
0.000183475
0.000171707
0.000176775
0.00018286
0.000169979
0.000149702
0.000786705
0.000619314
0.000543496
0.000483834
0.000468348
0.00042083
0.000382757
0.000316895
0.000264733
0.000217383
0.000202477
0.000171025
0.000191668
0.000180086
0.000161744
0.000169036
0.000182799
0.000171079
0.000150339
0.000908304
0.000689585
0.000505919
0.00055096
0.000502061
0.00049364
0.000449753
0.000351672
0.000258605
0.000219307
0.000221302
0.000203892
0.000192647
0.000188459
0.00016807
0.000158909
0.00017375
0.000160242
0.000138303
0.000827836
0.000658457
0.000566413
0.000541528
0.000490357
0.000465858
0.000415683
0.000345751
0.00026486
0.000220038
0.000208493
0.000177761
0.000185978
0.000195281
0.000165913
0.000144201
0.000170246
0.000155804
0.000138108
0.00094048
0.00057151
0.000577673
0.000438848
0.000452856
0.000458941
0.00043656
0.000381735
0.000293076
0.000241946
0.000231746
0.00022596
0.000164729
0.000188563
0.000184357
0.000152646
0.000150615
0.000152956
0.000138643
0.000914184
0.000624032
0.000489717
0.000446816
0.0004538
0.000433657
0.000405165
0.000370373
0.00030342
0.000238599
0.000220873
0.000187386
0.000174927
0.000189981
0.000177344
0.000136037
0.00014304
0.000150552
0.000131897
0.000914589
0.000482304
0.000397742
0.00034151
0.000423354
0.000371721
0.00038509
0.00042424
0.000314855
0.000273122
0.000232752
0.000213417
0.000180123
0.000166596
0.000196678
0.000165808
0.000137184
0.000150197
0.000143029
0.000845227
0.000547384
0.000392325
0.000369004
0.000404452
0.000398981
0.000392199
0.000356242
0.00031681
0.000252074
0.000220842
0.000203809
0.000172136
0.000177762
0.000188164
0.000141231
0.000124936
0.000142481
0.000135598
0.000494832
0.000473865
0.000408282
0.000330621
0.000331674
0.000248934
0.000253557
0.000236849
0.000218823
0.0002279
0.000218936
0.000227474
0.000255291
0.000294599
0.000287482
0.00025394
0.000220349
0.000239262
0.000243087
0.000363873
0.000688783
0.00036544
0.000320356
0.000229157
0.00020623
0.000185913
0.000157746
0.000144839
0.000178903
0.00020568
0.000212288
0.000238627
0.000279067
0.000279213
0.000247918
0.000223089
0.000236489
0.000235053
0.000620208
0.000678792
0.000325462
0.000230168
0.000166323
0.000146058
0.000110852
0.000143048
0.000146551
0.000192804
0.000200604
0.00021189
0.000252464
0.000273692
0.000264966
0.000238774
0.000226426
0.00024074
0.000239357
0.000751434
0.000569174
0.000296654
0.000191939
0.000159051
9.64775e-05
7.76254e-05
0.000125394
0.000129521
0.000178413
0.000204294
0.000214425
0.000248741
0.000281388
0.000271406
0.000233227
0.00024122
0.00025873
0.000253357
0.000806531
0.000544529
0.000270581
0.000153069
0.000122144
7.54873e-05
6.97573e-05
7.96873e-05
0.000129078
0.000180651
0.000211734
0.00020988
0.000248585
0.00027807
0.000264159
0.000240685
0.000256507
0.000272623
0.000257806
0.000817215
0.000535526
0.000264831
0.000164861
0.000102009
6.42416e-05
9.92771e-05
6.87031e-05
0.000135325
0.000174245
0.000222877
0.000228097
0.000260252
0.000279798
0.000279364
0.000263727
0.000276554
0.000270142
0.000272846
0.000792954
0.000528643
0.000190236
6.14126e-05
0.000130213
0.000121023
8.15535e-05
0.000114832
0.000137467
0.000188297
0.000219256
0.000231557
0.000257224
0.000294954
0.000291615
0.000292663
0.000296449
0.000296249
0.000284255
0.000859878
0.00047509
0.000162324
0.000139768
0.000115621
0.000109994
0.000107783
0.000154018
0.00015154
0.000246953
0.000238132
0.000255194
0.000272515
0.000331781
0.00035205
0.000331122
0.000320762
0.000305369
0.000296258
0.000862971
0.000483463
0.000165255
0.000146736
0.00014235
0.00015026
0.000135243
0.000134791
0.000198802
0.000231352
0.000295404
0.00027714
0.000323215
0.000356392
0.00038956
0.000379507
0.000348011
0.000308475
0.000252604
0.000868096
0.000471413
0.000200642
0.000217844
0.000214806
0.000235348
0.000161318
0.000185597
0.000303917
0.000285057
0.00032827
0.000363418
0.000395421
0.000403211
0.000389425
0.000397542
0.000365492
0.000271025
0.000289809
0.000837998
0.000457429
0.000224574
0.000172834
0.000211045
0.000250399
0.000258387
0.00030031
0.000298993
0.000347364
0.00039141
0.000405831
0.000394323
0.000367908
0.000382629
0.000348073
0.000306959
0.000276506
0.00023386
0.000836275
0.000497723
0.000301782
0.000226921
0.000267373
0.000364979
0.000335088
0.00043343
0.00035062
0.00035635
0.000383278
0.00037399
0.000367405
0.000344072
0.000321865
0.000317215
0.000277157
0.000261908
0.000278138
0.000805403
0.000494757
0.000341661
0.000391961
0.000460895
0.000492121
0.000541196
0.000552595
0.000352446
0.000352013
0.000334423
0.000324828
0.000306257
0.000320078
0.000253399
0.000247686
0.000266816
0.000231424
0.000246732
0.00086821
0.00053859
0.000446171
0.000487918
0.000518711
0.000432314
0.00054214
0.000355241
0.000321649
0.000311138
0.000282497
0.000279769
0.000232675
0.000223817
0.000216768
0.00021567
0.000223644
0.000214173
0.000213567
0.000807778
0.00058086
0.000513254
0.000561132
0.000518903
0.000475404
0.000427661
0.000287539
0.000265487
0.000248581
0.000231443
0.000231296
0.000199473
0.000175161
0.000186668
0.000184724
0.000198516
0.00019356
0.000190322
0.0008849
0.000577746
0.00046986
0.000456126
0.000428858
0.000431302
0.000335399
0.00027995
0.000251486
0.000226079
0.000213957
0.000196389
0.000186918
0.000172206
0.000163805
0.000163499
0.00016994
0.000182161
0.000181585
0.000792808
0.000600001
0.000470422
0.000387075
0.000391198
0.000376646
0.000358615
0.000311651
0.000249273
0.000229252
0.000216942
0.000189044
0.000181366
0.000169051
0.00014328
0.000142268
0.000144381
0.000166121