/*--------------------------------*- C++ -*----------------------------------*\
| =========                 |                                                 |
| \\      /  F ield         | foam-extend: Open Source CFD                    |
|  \\    /   O peration     | Version:     3.1                                |
|   \\  /    A nd           | Web:         http://www.extend-project.de       |
|    \\/     M anipulation  |                                                 |
\*---------------------------------------------------------------------------*/
FoamFile
{
    version     2.0;
    format      ascii;
    class       volScalarField;
    location    "345600";
    object      DEpsilonHyd;
}
// * * * * * * * * * * * * * * * * * * * * * * * * * * * * * * * * * * * * * //

dimensions      [0 0 0 0 0 0 0];

internalField   nonuniform List<scalar> 
23248
(
1.44613e-05
1.44958e-05
1.45483e-05
1.46971e-05
1.52352e-05
1.63516e-05
1.9212e-05
2.67055e-05
4.81204e-05
1.51058e-05
1.5164e-05
1.52832e-05
1.54837e-05
1.63547e-05
1.81142e-05
2.26629e-05
3.43892e-05
6.30709e-05
-7.17983e-07
-7.58286e-07
-7.15659e-07
-5.63127e-07
-1.4132e-07
9.65123e-07
3.79036e-06
1.09854e-05
3.57982e-05
8.89047e-06
8.85784e-06
8.9275e-06
9.16014e-06
9.80227e-06
1.14778e-05
1.59871e-05
2.82709e-05
6.05617e-05
-3.91826e-07
-3.48241e-07
-3.01421e-07
-1.62164e-07
2.10962e-07
1.22182e-06
3.7819e-06
9.9727e-06
3.03814e-05
7.0169e-06
7.07476e-06
7.14546e-06
7.36014e-06
7.94236e-06
9.49622e-06
1.37132e-05
2.52575e-05
5.52581e-05
9.74014e-06
9.81257e-06
9.85573e-06
9.9853e-06
1.03317e-05
1.1259e-05
1.36088e-05
1.92549e-05
3.89935e-05
1.5247e-05
1.52076e-05
1.52649e-05
1.54645e-05
1.60062e-05
1.74314e-05
2.12719e-05
3.17528e-05
5.88341e-05
3.7267e-05
3.73466e-05
3.73912e-05
3.75292e-05
3.79505e-05
3.88004e-05
4.08424e-05
4.51958e-05
5.53535e-05
1.85994e-05
1.85841e-05
1.8643e-05
1.88491e-05
1.93955e-05
2.07676e-05
2.43188e-05
3.36023e-05
5.67272e-05
-3.46399e-05
-3.46354e-05
-3.46095e-05
-3.44994e-05
-3.41997e-05
-3.33629e-05
-3.12334e-05
-2.57344e-05
2.22614e-06
-1.09289e-05
-1.09332e-05
-1.08943e-05
-1.07181e-05
-1.0226e-05
-8.91151e-06
-5.31231e-06
4.56209e-06
3.04906e-05
-9.90828e-06
-9.98826e-06
-9.95986e-06
-9.83554e-06
-9.49411e-06
-8.87048e-06
-6.6297e-06
-5.87675e-07
2.05088e-05
-3.20395e-06
-3.27986e-06
-3.23086e-06
-3.03353e-06
-2.49655e-06
-1.09873e-06
2.62764e-06
1.26443e-05
3.80539e-05
6.15734e-06
6.08103e-06
6.10483e-06
6.23245e-06
6.63508e-06
7.24321e-06
9.47329e-06
1.31403e-05
2.5466e-05
1.45747e-06
1.58074e-06
1.64627e-06
1.84248e-06
2.35303e-06
3.66134e-06
7.05029e-06
1.5714e-05
3.67356e-05
-1.53001e-06
-1.56512e-06
-1.55643e-06
-1.31742e-06
-9.33733e-07
-4.78013e-08
2.54947e-06
9.01143e-06
2.21127e-05
-5.11142e-06
-5.07923e-06
-4.9923e-06
-4.77386e-06
-4.24311e-06
-2.85156e-06
9.83142e-07
1.14061e-05
3.76619e-05
3.9914e-06
3.81264e-06
3.94067e-06
4.09027e-06
4.39107e-06
5.0193e-06
2.33183e-06
1.02861e-05
2.52963e-05
-2.60547e-06
-2.49934e-06
-2.40883e-06
-2.19918e-06
-1.71127e-06
-5.7072e-07
2.46073e-06
1.24734e-05
3.74083e-05
-7.93548e-06
-7.96156e-06
-8.12436e-06
-7.90657e-06
-7.41308e-06
-5.33759e-06
6.02691e-06
5.51456e-06
1.97816e-05
-3.26768e-06
-3.11211e-06
-3.01139e-06
-2.7165e-06
-1.93927e-06
-1.07477e-07
9.93412e-07
1.5475e-05
4.04723e-05
3.68828e-06
3.63661e-06
3.72084e-06
3.93921e-06
4.4667e-06
5.96296e-06
1.74548e-05
1.62763e-05
3.66519e-05
5.92087e-06
6.1184e-06
6.25403e-06
6.57482e-06
7.37658e-06
9.35071e-06
1.40298e-05
2.44309e-05
5.19519e-05
2.57877e-05
2.58763e-05
2.59547e-05
2.61457e-05
2.65559e-05
2.73493e-05
2.90949e-05
3.53763e-05
5.92648e-05
2.33827e-05
2.33751e-05
2.35011e-05
2.38192e-05
2.4586e-05
2.64538e-05
3.11257e-05
4.29564e-05
7.31395e-05
-1.49973e-05
-1.45803e-05
-1.44735e-05
-1.42107e-05
-1.35721e-05
-1.2042e-05
-8.39559e-06
9.12628e-07
6.79476e-05
2.75694e-05
2.76418e-05
2.78066e-05
2.82182e-05
2.92196e-05
3.1657e-05
3.76223e-05
5.21497e-05
9.27701e-05
-1.52368e-05
-1.54075e-05
-1.53462e-05
-1.50461e-05
-1.43002e-05
-1.25459e-05
-8.714e-06
-8.52351e-08
4.9221e-05
5.0623e-05
5.06146e-05
5.07894e-05
5.12638e-05
5.24425e-05
5.53717e-05
6.27321e-05
8.08593e-05
0.000122035
4.58033e-05
4.5923e-05
4.60615e-05
4.64416e-05
4.73181e-05
4.92084e-05
5.26912e-05
5.93011e-05
0.00011521
9.99443e-05
9.99695e-05
0.000100205
0.000100786
0.000102181
0.000105583
0.000113928
0.000133397
0.000174376
9.88993e-05
9.87357e-05
9.88896e-05
9.92806e-05
0.000100145
0.000101822
0.000104444
0.000108411
0.000148425
0.000109033
0.000109046
0.000109305
0.000109965
0.000111532
0.000115278
0.000124056
0.000143187
0.00017945
3.68405e-05
3.67615e-05
3.69753e-05
3.75151e-05
3.87201e-05
4.12385e-05
4.61394e-05
5.75017e-05
0.000130644
7.96305e-05
7.98087e-05
8.01247e-05
8.08768e-05
8.26902e-05
8.70667e-05
9.75443e-05
0.000121347
0.000176807
8.88711e-05
8.8799e-05
8.89528e-05
8.93598e-05
9.02501e-05
9.20459e-05
9.53159e-05
0.000101699
0.000134549
7.91836e-05
7.94364e-05
7.97295e-05
8.04277e-05
8.20815e-05
8.60064e-05
9.5322e-05
0.000116721
0.000160702
9.23128e-06
9.34986e-06
9.38649e-06
9.51575e-06
1.03368e-05
1.11926e-05
1.40114e-05
2.12975e-05
4.17135e-05
-1.84545e-05
-1.83648e-05
-1.85965e-05
-1.84425e-05
-7.54156e-06
-1.61667e-05
-1.16019e-05
1.85038e-05
9.70407e-05
1.24011e-05
1.32469e-05
1.51717e-05
1.47739e-05
1.64996e-05
1.76991e-05
2.32049e-05
3.35826e-05
6.05326e-05
8.59034e-06
8.54775e-06
9.56851e-06
9.66326e-06
1.03489e-05
1.096e-05
1.49334e-05
2.61351e-05
5.62571e-05
6.65784e-06
6.75424e-06
6.80216e-06
6.84931e-06
7.48111e-06
9.28265e-06
1.35479e-05
2.43461e-05
5.79072e-05
4.71645e-06
4.80762e-06
4.79547e-06
5.15188e-06
6.07625e-06
7.98117e-06
1.25775e-05
2.41222e-05
4.83385e-05
-2.10108e-05
-2.09132e-05
-2.05542e-05
-2.0235e-05
-1.96159e-05
-1.76233e-05
-1.27484e-05
-1.43555e-07
5.02032e-05
1.58082e-05
1.58838e-05
1.60157e-05
1.63859e-05
1.71912e-05
1.92471e-05
2.40405e-05
3.57426e-05
7.2519e-05
-2.50356e-05
-2.50044e-05
-2.48698e-05
-2.45197e-05
-2.37502e-05
-2.16707e-05
-1.69337e-05
-4.9098e-06
3.68736e-05
-1.6887e-06
-1.73606e-06
-1.60693e-06
-1.20559e-06
-9.14196e-07
1.41431e-06
6.5492e-06
1.83131e-05
5.81406e-05
9.79959e-06
9.78328e-06
9.94407e-06
1.03743e-05
1.11523e-05
1.34987e-05
1.82815e-05
2.87856e-05
6.43082e-05
1.3678e-05
1.37004e-05
1.38453e-05
1.42215e-05
1.51216e-05
1.71733e-05
2.19343e-05
3.29968e-05
7.53465e-05
3.39765e-05
3.38276e-05
3.39729e-05
3.43707e-05
3.53424e-05
3.76343e-05
4.1972e-05
5.23514e-05
9.2885e-05
7.00392e-05
7.02097e-05
7.03862e-05
7.07829e-05
7.1676e-05
7.36193e-05
7.80228e-05
8.71112e-05
0.000120457
7.22775e-05
7.2376e-05
7.25566e-05
7.29786e-05
7.39232e-05
7.59737e-05
8.03486e-05
9.03511e-05
0.000124544
5.76708e-05
5.77146e-05
5.79158e-05
5.83947e-05
5.94602e-05
6.17686e-05
6.67108e-05
7.82389e-05
0.000122034
3.20405e-05
3.21223e-05
3.23458e-05
3.28734e-05
3.40595e-05
3.6531e-05
4.18099e-05
5.37097e-05
9.05349e-05
6.87592e-05
6.88194e-05
6.90413e-05
6.95528e-05
7.06459e-05
7.30349e-05
7.80148e-05
8.92741e-05
0.000129239
3.93237e-05
3.93068e-05
3.95324e-05
4.00722e-05
4.12466e-05
4.37341e-05
4.89606e-05
6.09023e-05
0.000101708
6.76101e-06
6.82536e-06
6.93331e-06
7.18587e-06
8.07228e-06
9.87845e-06
1.47818e-05
2.76994e-05
6.04933e-05
-1.08498e-05
-1.0507e-05
-1.03397e-05
-9.91038e-06
-8.1812e-06
-6.88556e-06
-1.36234e-06
1.23616e-05
5.03924e-05
7.30213e-06
7.63086e-06
1.16788e-05
1.2317e-05
1.33258e-05
1.1251e-05
1.68854e-05
3.63376e-05
7.31637e-05
3.89851e-06
4.05446e-06
4.72084e-06
5.13281e-06
5.99972e-06
7.96963e-06
1.44654e-05
3.21219e-05
7.42755e-05
7.44669e-06
7.74505e-06
7.89842e-06
8.31326e-06
9.4171e-06
1.22211e-05
1.93844e-05
3.77058e-05
8.081e-05
-1.47795e-06
-1.32356e-06
-1.12648e-06
-5.81828e-07
6.68012e-07
3.73282e-06
1.14654e-05
3.09525e-05
7.90978e-05
-7.87994e-06
-7.58859e-06
-7.35823e-06
-6.84635e-06
-5.59575e-06
-2.45917e-06
5.46329e-06
2.56629e-05
7.44692e-05
-4.49434e-06
-4.27603e-06
-4.05719e-06
-3.52335e-06
-2.19845e-06
1.10918e-06
9.33141e-06
2.95654e-05
7.54029e-05
-2.64005e-06
-2.50366e-06
-2.30395e-06
-1.80291e-06
-5.12283e-07
2.78464e-06
1.08635e-05
3.00473e-05
7.0321e-05
-6.44088e-06
-6.33444e-06
-6.12114e-06
-5.56716e-06
-4.19295e-06
-9.03011e-07
7.1926e-06
2.69756e-05
7.55653e-05
2.08582e-05
2.10743e-05
2.13311e-05
2.19413e-05
2.33653e-05
2.68514e-05
3.52562e-05
5.50265e-05
9.71652e-05
4.02264e-05
4.02646e-05
4.04876e-05
4.10645e-05
4.24626e-05
4.58596e-05
5.42056e-05
7.43049e-05
0.0001187
6.06998e-05
6.07283e-05
6.09593e-05
6.15601e-05
6.30015e-05
6.64413e-05
7.47188e-05
9.44098e-05
0.000135985
7.79688e-05
7.80277e-05
7.8287e-05
7.89171e-05
8.03893e-05
8.38514e-05
9.20219e-05
0.000110883
0.000150255
7.41813e-05
7.41918e-05
7.44634e-05
7.51383e-05
7.66925e-05
8.02609e-05
8.85411e-05
0.000107628
0.000148064
5.79491e-05
5.81085e-05
5.84316e-05
5.9201e-05
6.09588e-05
6.49766e-05
7.414e-05
9.48361e-05
0.000140823
4.5406e-05
4.55718e-05
4.59247e-05
4.6745e-05
4.85934e-05
5.27443e-05
6.20989e-05
8.29645e-05
0.000127706
6.34557e-05
6.36486e-05
6.4014e-05
6.4855e-05
6.67304e-05
7.09002e-05
8.01736e-05
0.000100572
0.000143406
4.3939e-05
4.41438e-05
4.45207e-05
4.53849e-05
4.73043e-05
5.15608e-05
6.10451e-05
8.20644e-05
0.000126807
5.35955e-05
5.38826e-05
5.58365e-05
6.30714e-05
6.79311e-05
6.78226e-05
6.81774e-05
6.20485e-05
5.96213e-05
6.04424e-05
6.07716e-05
6.12417e-05
5.70596e-05
4.84942e-05
3.84574e-05
3.75403e-05
3.65165e-05
3.45902e-05
3.78656e-05
6.03411e-05
6.05538e-05
5.65019e-05
5.96588e-05
5.90816e-05
6.03035e-05
5.81838e-05
5.39584e-05
5.3833e-05
5.53631e-05
5.64956e-05
6.25257e-05
5.86295e-05
4.81948e-05
4.16872e-05
3.54434e-05
3.5706e-05
2.84268e-05
4.18173e-05
5.67193e-05
6.07593e-05
6.35922e-05
6.02288e-05
6.40598e-05
6.06892e-05
5.70347e-05
5.48103e-05
5.52469e-05
5.65727e-05
5.22595e-05
5.4828e-05
5.57894e-05
5.28953e-05
4.3364e-05
3.61523e-05
3.74041e-05
3.98379e-05
4.54018e-05
5.89475e-05
5.75578e-05
5.6429e-05
5.53288e-05
5.71631e-05
5.59813e-05
5.1069e-05
4.9919e-05
4.72425e-05
6.17375e-05
4.82127e-05
4.94377e-05
5.34193e-05
4.98896e-05
4.40431e-05
3.79909e-05
3.45709e-05
3.61954e-05
3.17756e-05
5.44464e-05
5.8305e-05
5.99416e-05
5.61152e-05
6.04147e-05
5.91208e-05
5.21812e-05
5.00921e-05
5.24038e-05
4.07557e-05
5.4431e-05
3.87622e-05
5.96403e-05
5.16696e-05
4.76528e-05
4.25407e-05
3.81584e-05
4.73088e-05
4.31832e-05
5.29851e-05
5.36488e-05
5.61481e-05
5.65146e-05
5.96076e-05
5.64688e-05
5.22667e-05
5.25974e-05
5.2948e-05
4.92547e-05
5.79821e-05
3.9942e-05
4.47113e-05
5.21929e-05
4.75853e-05
4.28963e-05
3.97929e-05
3.87479e-05
3.80343e-05
4.37705e-05
4.67914e-05
4.80899e-05
5.26371e-05
5.61226e-05
5.3602e-05
5.34515e-05
5.7141e-05
5.94456e-05
5.89283e-05
3.53943e-05
5.00562e-05
5.30313e-05
5.89661e-05
6.85701e-05
3.16733e-05
3.77768e-05
3.75637e-05
4.29494e-05
4.84042e-05
4.88428e-05
4.89794e-05
5.19888e-05
5.52991e-05
5.51864e-05
5.4442e-05
6.40696e-05
6.45558e-05
5.52028e-05
4.93915e-05
5.37366e-05
3.86941e-05
6.8412e-05
5.48676e-05
4.53675e-05
3.03826e-05
3.95624e-05
3.6188e-05
4.2681e-05
4.20447e-05
4.2429e-05
4.98256e-05
5.49279e-05
6.06615e-05
6.39294e-05
7.323e-05
6.95587e-05
5.75191e-05
5.42283e-05
4.09191e-05
3.80913e-05
4.98088e-05
6.16118e-05
7.01372e-05
3.06172e-05
4.23645e-05
4.08835e-05
4.43069e-05
4.39079e-05
4.47825e-05
4.81605e-05
5.69239e-05
6.04363e-05
6.76991e-05
7.19829e-05
6.94502e-05
6.02433e-05
5.11623e-05
5.04141e-05
4.47765e-05
3.31272e-05
6.81079e-05
6.17839e-05
4.17359e-05
4.47331e-05
3.99587e-05
4.07705e-05
3.92866e-05
4.33977e-05
4.94926e-05
5.62675e-05
6.84085e-05
7.65236e-05
7.78982e-05
7.13267e-05
6.07561e-05
5.07271e-05
4.87856e-05
3.47636e-05
4.3156e-05
5.05078e-05
6.20226e-05
6.42913e-05
4.16916e-05
4.14208e-05
4.29945e-05
4.40822e-05
4.6331e-05
5.07603e-05
4.94887e-05
6.65589e-05
7.29861e-05
7.34569e-05
6.62971e-05
5.8761e-05
5.33886e-05
4.24453e-05
4.808e-05
4.19953e-05
3.77123e-05
6.71423e-05
5.98451e-05
3.80463e-05
3.26212e-05
4.13716e-05
4.61953e-05
4.89825e-05
4.99824e-05
5.74705e-05
6.94945e-05
7.54007e-05
7.51173e-05
6.57527e-05
5.60085e-05
5.0535e-05
4.27651e-05
4.82045e-05
3.48863e-05
4.61983e-05
4.54996e-05
5.89657e-05
4.35261e-05
4.46107e-05
4.58804e-05
4.93808e-05
5.01298e-05
4.98478e-05
5.69795e-05
6.60819e-05
6.73202e-05
7.25211e-05
6.27594e-05
5.15694e-05
4.46805e-05
4.60168e-05
3.90754e-05
5.04488e-05
4.10538e-05
3.95654e-05
6.21188e-05
5.56573e-05
3.57164e-05
4.75946e-05
5.40122e-05
4.78687e-05
6.10211e-05
5.35886e-05
6.41941e-05
6.84466e-05
6.67152e-05
6.32023e-05
4.48932e-05
4.2144e-05
4.45689e-05
3.87413e-05
4.89558e-05
3.48119e-05
4.20806e-05
3.69972e-05
5.53864e-05
4.79003e-05
5.04551e-05
5.28551e-05
3.9504e-05
6.41143e-05
5.36715e-05
5.66713e-05
6.41046e-05
5.19462e-05
6.0314e-05
4.5984e-05
3.99815e-05
4.02135e-05
4.42043e-05
3.45405e-05
5.11326e-05
4.25442e-05
4.36661e-05
4.64518e-05
5.85704e-05
5.31036e-05
5.00887e-05
4.81254e-05
4.54016e-05
6.18637e-05
5.66088e-05
5.31373e-05
4.53249e-05
4.52413e-05
4.30974e-05
3.21698e-05
3.90543e-05
3.84002e-05
3.56052e-05
5.13682e-05
3.66944e-05
3.93327e-05
3.82903e-05
4.77247e-05
5.25879e-05
4.51219e-05
5.3456e-05
4.14925e-05
5.95872e-05
5.20462e-05
4.22113e-05
4.97318e-05
3.3664e-05
4.64698e-05
3.36205e-05
3.71836e-05
3.78414e-05
4.35287e-05
3.45444e-05
2.78499e-05
4.34092e-05
4.63474e-05
4.74909e-05
5.18987e-05
4.96012e-05
4.51778e-05
4.76882e-05
4.27607e-05
5.2028e-05
3.90894e-05
3.69004e-05
3.01932e-05
3.70881e-05
3.81565e-05
2.98425e-05
3.71696e-05
2.91664e-05
4.10111e-05
4.01801e-05
4.35776e-05
4.71345e-05
5.16714e-05
4.52341e-05
5.15964e-05
3.91756e-05
5.09263e-05
3.81554e-05
4.65091e-05
3.92547e-05
2.61106e-05
3.94753e-05
2.55824e-05
4.42216e-05
2.87898e-05
3.52695e-05
3.59625e-05
4.4391e-05
4.00624e-05
4.10519e-05
4.65383e-05
5.445e-05
4.72212e-05
4.66341e-05
4.93103e-05
4.13266e-05
4.24941e-05
3.7501e-05
2.63224e-05
2.62832e-05
3.66806e-05
3.43809e-05
3.30058e-05
3.75662e-05
3.44702e-05
2.94475e-05
3.63772e-05
4.37274e-05
4.4198e-05
5.11754e-05
5.78914e-05
4.96871e-05
4.34846e-05
4.66491e-05
3.40709e-05
3.84957e-05
2.98267e-05
3.14391e-05
3.15318e-05
2.06119e-05
3.96397e-05
2.06303e-05
4.2781e-05
2.84228e-05
2.737e-05
4.00736e-05
4.06996e-05
4.25462e-05
4.51141e-05
5.29607e-05
5.02866e-05
4.68005e-05
3.59329e-05
3.93799e-05
3.57923e-05
2.52233e-05
2.59408e-05
3.67157e-05
2.3717e-05
2.75649e-05
3.11628e-05
3.3198e-05
3.7496e-05
3.21897e-05
2.84415e-05
4.56176e-05
4.61284e-05
5.14329e-05
5.9933e-05
4.57668e-05
4.52549e-05
3.45112e-05
3.62274e-05
2.69393e-05
2.77979e-05
2.21546e-05
3.03848e-05
3.10472e-05
1.53523e-05
3.83162e-05
1.94392e-05
4.39347e-05
2.84354e-05
2.97963e-05
4.50672e-05
4.34903e-05
4.52198e-05
4.86114e-05
5.07276e-05
4.19082e-05
3.52983e-05
2.36311e-05
2.5858e-05
2.44267e-05
2.025e-05
2.24782e-05
2.14517e-05
2.05794e-05
3.52878e-05
2.4822e-05
2.53187e-05
3.49841e-05
3.69496e-05
4.1909e-05
4.80944e-05
4.88125e-05
5.74894e-05
4.6584e-05
4.31261e-05
3.62141e-05
2.50488e-05
2.57801e-05
1.95433e-05
2.19931e-05
2.14823e-05
2.52549e-05
3.06358e-05
1.7047e-05
3.75145e-05
2.01174e-05
4.31028e-05
3.07768e-05
4.16343e-05
4.41527e-05
4.3125e-05
4.84486e-05
4.90802e-05
3.91337e-05
2.74447e-05
2.62633e-05
1.71798e-05
2.15206e-05
2.12155e-05
2.03668e-05
2.06038e-05
3.61876e-05
2.14747e-05
3.00556e-05
3.69532e-05
2.31407e-05
4.16341e-05
4.35655e-05
4.8274e-05
4.89025e-05
5.3256e-05
4.47701e-05
3.72253e-05
3.44757e-05
2.65828e-05
2.21459e-05
2.11164e-05
1.98799e-05
2.10042e-05
2.23973e-05
3.08569e-05
3.28496e-05
1.8187e-05
4.23541e-05
2.46737e-05
4.45077e-05
4.20664e-05
4.6763e-05
4.29577e-05
4.65473e-05
4.44039e-05
3.57204e-05
2.71101e-05
2.33314e-05
2.17743e-05
1.60436e-05
1.89328e-05
1.83665e-05
2.06004e-05
2.05086e-05
3.75605e-05
2.88506e-05
3.82119e-05
4.63325e-05
4.1796e-05
4.80253e-05
4.77879e-05
4.66649e-05
5.32152e-05
4.17872e-05
3.61686e-05
2.88839e-05
2.61959e-05
2.21788e-05
1.87874e-05
1.88e-05
1.93023e-05
2.2394e-05
2.57481e-05
3.52981e-05
3.52911e-05
3.53958e-05
3.96684e-05
2.97622e-05
4.40808e-05
4.77588e-05
4.38474e-05
4.92167e-05
3.79918e-05
3.32496e-05
2.59888e-05
2.50499e-05
2.29476e-05
2.03059e-05
1.79028e-05
2.03251e-05
2.0076e-05
2.4019e-05
2.83148e-05
3.61788e-05
4.12649e-05
4.31876e-05
4.66425e-05
5.30132e-05
4.73731e-05
4.93225e-05
5.01671e-05
3.63461e-05
3.12059e-05
2.67072e-05
2.44881e-05
2.44412e-05
1.98019e-05
1.87113e-05
1.96681e-05
2.12147e-05
2.61886e-05
3.04595e-05
3.26859e-05
3.9541e-05
4.15101e-05
4.14409e-05
4.78534e-05
4.84734e-05
4.53044e-05
4.84673e-05
3.55917e-05
2.46807e-05
3.29153e-05
2.41236e-05
2.41201e-05
2.28887e-05
2.05885e-05
1.98055e-05
2.41002e-05
2.76495e-05
3.46088e-05
4.13738e-05
4.70029e-05
4.65102e-05
5.28904e-05
5.24431e-05
5.20459e-05
5.03506e-05
5.10091e-05
3.14579e-05
2.89377e-05
3.07583e-05
2.63712e-05
2.36241e-05
2.2879e-05
2.1173e-05
2.12643e-05
2.34299e-05
2.71828e-05
3.25792e-05
3.94136e-05
4.40797e-05
4.50866e-05
4.64005e-05
4.98722e-05
5.05634e-05
4.66578e-05
5.0401e-05
3.33949e-05
3.11329e-05
2.23675e-05
3.01581e-05
2.43715e-05
2.56991e-05
2.46028e-05
2.50699e-05
2.90761e-05
3.39917e-05
4.1696e-05
5.11215e-05
5.4936e-05
5.50744e-05
5.39477e-05
5.08218e-05
4.98675e-05
5.01395e-05
5.04921e-05
2.93222e-05
2.1706e-05
3.09855e-05
3.08687e-05
2.57781e-05
2.65381e-05
2.31803e-05
2.47537e-05
2.81043e-05
3.27695e-05
3.93014e-05
4.64804e-05
5.03857e-05
5.05517e-05
4.86782e-05
5.14469e-05
4.71896e-05
4.49853e-05
4.94068e-05
3.33769e-05
3.26023e-05
3.05157e-05
2.16873e-05
2.90092e-05
2.84538e-05
3.07918e-05
3.45245e-05
3.65852e-05
4.34801e-05
5.08403e-05
5.82473e-05
5.96998e-05
5.81247e-05
4.55175e-05
4.53974e-05
4.39926e-05
4.67438e-05
5.12828e-05
3.07179e-05
3.08503e-05
2.32161e-05
3.06835e-05
3.3821e-05
2.84806e-05
3.29457e-05
3.16392e-05
3.47098e-05
4.21053e-05
4.47782e-05
5.31871e-05
5.74981e-05
5.35413e-05
5.03662e-05
4.8464e-05
4.45087e-05
4.40709e-05
5.0179e-05
0.000101518
0.000137737
9.96618e-05
9.1426e-05
0.000113934
9.22311e-05
9.99087e-05
8.24281e-05
7.92967e-05
8.47078e-05
8.11737e-05
7.63335e-05
8.04951e-05
8.42156e-05
7.25189e-05
6.23254e-05
6.17697e-05
6.01637e-05
5.88982e-05
0.000112439
0.000119227
9.57404e-05
8.85643e-05
9.01633e-05
8.28067e-05
8.80012e-05
6.7107e-05
6.24058e-05
7.90188e-05
7.7464e-05
7.23084e-05
7.61635e-05
7.77681e-05
6.65323e-05
6.08579e-05
6.61777e-05
6.29351e-05
6.09683e-05
0.000108538
0.000107953
7.78796e-05
7.7548e-05
8.33488e-05
9.76824e-05
0.000102279
8.74985e-05
9.05325e-05
9.77046e-05
9.3037e-05
8.39741e-05
9.19468e-05
8.84143e-05
7.57212e-05
6.7694e-05
6.6851e-05
5.96507e-05
5.30877e-05
0.000101345
0.000102411
8.37447e-05
7.56262e-05
7.41177e-05
8.18165e-05
8.24118e-05
7.86702e-05
7.73346e-05
8.42739e-05
7.78226e-05
8.38491e-05
8.62217e-05
7.8924e-05
7.54996e-05
6.97236e-05
6.49694e-05
5.91485e-05
5.64494e-05
0.000103179
9.81906e-05
6.62696e-05
7.33974e-05
8.54731e-05
9.07884e-05
9.48172e-05
9.28415e-05
8.88942e-05
8.79754e-05
8.58097e-05
8.31329e-05
8.76601e-05
8.67336e-05
7.54932e-05
7.37913e-05
6.92111e-05
5.87797e-05
5.54257e-05
9.18076e-05
9.43274e-05
7.59533e-05
7.00597e-05
7.44341e-05
7.37439e-05
7.21723e-05
7.04466e-05
7.91906e-05
8.5942e-05
8.56112e-05
7.90213e-05
8.48999e-05
8.21874e-05
7.47206e-05
7.21606e-05
6.52773e-05
5.03167e-05
5.44972e-05
0.000109566
8.51214e-05
6.7378e-05
6.37322e-05
6.82963e-05
7.96461e-05
8.71454e-05
8.94682e-05
8.88819e-05
7.36668e-05
7.80652e-05
8.84351e-05
7.86589e-05
7.79262e-05
7.72456e-05
7.79163e-05
6.60392e-05
5.88058e-05
5.64203e-05
0.000105131
8.22772e-05
6.81222e-05
6.22611e-05
6.41234e-05
6.5782e-05
6.81905e-05
7.14641e-05
7.78242e-05
7.88052e-05
8.03046e-05
8.66353e-05
7.93999e-05
7.7791e-05
7.56995e-05
7.35727e-05
6.55372e-05
5.4873e-05
5.08111e-05
9.8313e-05
8.44989e-05
6.53715e-05
6.27718e-05
6.35368e-05
6.80185e-05
7.04003e-05
7.33081e-05
8.03646e-05
7.09712e-05
7.75107e-05
8.52612e-05
8.47144e-05
8.33154e-05
7.77738e-05
7.67191e-05
6.85132e-05
6.11969e-05
4.55428e-05
9.34814e-05
8.37262e-05
6.44347e-05
5.72841e-05
5.69363e-05
5.78721e-05
6.13509e-05
6.72582e-05
7.3109e-05
7.07663e-05
7.75724e-05
8.70929e-05
7.71802e-05
7.84185e-05
7.75622e-05
7.62901e-05
6.7109e-05
6.12635e-05
4.9673e-05
6.96655e-05
8.4395e-05
5.00174e-05
5.21992e-05
5.14067e-05
4.77434e-05
5.66849e-05
6.44053e-05
7.5807e-05
6.39857e-05
7.58176e-05
8.42011e-05
8.18103e-05
8.24202e-05
8.03268e-05
7.58612e-05
7.05696e-05
5.64683e-05
4.19382e-05
7.46805e-05
8.10596e-05
5.96202e-05
5.13619e-05
4.59253e-05
4.67033e-05
5.13487e-05
5.97473e-05
6.43696e-05
6.29155e-05
7.38092e-05
8.4053e-05
7.81124e-05
7.7825e-05
8.34683e-05
7.63906e-05
6.13345e-05
5.65651e-05
4.83927e-05
9.16419e-05
6.54762e-05
3.4448e-05
4.1678e-05
4.4599e-05
3.55409e-05
4.98937e-05
6.10777e-05
6.84043e-05
5.97879e-05
7.07505e-05
7.44357e-05
7.53901e-05
8.12579e-05
8.42756e-05
7.60296e-05
6.49719e-05
4.83936e-05
4.16023e-05
8.41745e-05
6.51857e-05
5.23522e-05
5.06908e-05
4.67137e-05
3.83965e-05
4.16143e-05
5.25211e-05
5.64242e-05
5.94437e-05
7.30839e-05
7.39909e-05
7.3419e-05
8.10581e-05
8.4178e-05
6.81637e-05
5.96335e-05
5.39691e-05
4.88902e-05
8.00625e-05
5.98312e-05
4.27897e-05
4.86824e-05
3.56089e-05
4.14723e-05
4.01081e-05
4.45157e-05
5.5981e-05
5.095e-05
5.73762e-05
6.88634e-05
7.30559e-05
8.01184e-05
8.60795e-05
7.27306e-05
5.29515e-05
5.19166e-05
4.85711e-05
7.60781e-05
6.39494e-05
5.24957e-05
5.37941e-05
4.51636e-05
4.09143e-05
3.94418e-05
4.27556e-05
4.95503e-05
5.2576e-05
5.8842e-05
7.08818e-05
6.87613e-05
7.98528e-05
7.68583e-05
6.41947e-05
5.63603e-05
5.60758e-05
5.32408e-05
0.000108325
4.08132e-05
3.83857e-05
3.06419e-05
3.33165e-05
3.89982e-05
3.52157e-05
4.68342e-05
4.69076e-05
4.83888e-05
6.05948e-05
6.35745e-05
6.93248e-05
7.83711e-05
7.45889e-05
6.17814e-05
5.57433e-05
6.05297e-05
6.03671e-05
8.22811e-05
5.87403e-05
4.54903e-05
4.17219e-05
4.2398e-05
4.16654e-05
4.02625e-05
4.21983e-05
4.22426e-05
4.82185e-05
5.45975e-05
5.98481e-05
6.41273e-05
7.46523e-05
6.66787e-05
6.00827e-05
5.69571e-05
6.15997e-05
5.96954e-05
9.93577e-05
5.01956e-05
2.96902e-05
4.37677e-05
3.46143e-05
2.80596e-05
4.01659e-05
4.28305e-05
5.44771e-05
5.19135e-05
5.7454e-05
5.73357e-05
6.24535e-05
6.86821e-05
6.42572e-05
5.5614e-05
6.1574e-05
6.97747e-05
6.5054e-05
7.73366e-05
6.49573e-05
4.6879e-05
4.14347e-05
3.82117e-05
3.90149e-05
3.65112e-05
3.88624e-05
4.41507e-05
4.9664e-05
5.48348e-05
5.49744e-05
6.21575e-05
6.27938e-05
5.77639e-05
5.44456e-05
6.25686e-05
6.77919e-05
6.14303e-05
9.72784e-05
5.80111e-05
4.34495e-05
4.11086e-05
3.43257e-05
4.15677e-05
3.82798e-05
3.93325e-05
4.68324e-05
4.94417e-05
4.99945e-05
5.05394e-05
5.96662e-05
6.19568e-05
5.68162e-05
5.06026e-05
6.91094e-05
7.26767e-05
5.98192e-05
8.17906e-05
6.18741e-05
4.70105e-05
3.78955e-05
3.45753e-05
4.51117e-05
3.96741e-05
3.74372e-05
4.25816e-05
4.71359e-05
5.22221e-05
4.9998e-05
5.47782e-05
5.61947e-05
5.35052e-05
5.54056e-05
6.8135e-05
6.61803e-05
4.67545e-05
0.000111141
5.68669e-05
3.13886e-05
2.11029e-05
3.89695e-05
4.58302e-05
4.09624e-05
4.39344e-05
4.48446e-05
2.9534e-05
4.79674e-05
4.87243e-05
5.50763e-05
5.6367e-05
5.48914e-05
5.88483e-05
7.06341e-05
6.97957e-05
5.84748e-05
9.24233e-05
7.09713e-05
4.91899e-05
3.9834e-05
3.85743e-05
4.66983e-05
4.21702e-05
4.15212e-05
4.45725e-05
3.97956e-05
4.62097e-05
4.49058e-05
5.28659e-05
4.36787e-05
5.02262e-05
5.82107e-05
6.5577e-05
5.95886e-05
5.35971e-05
0.000136474
6.8677e-05
2.30064e-05
2.91421e-05
3.98226e-05
3.30404e-05
4.47388e-05
4.61392e-05
4.89829e-05
3.14883e-05
4.64007e-05
4.84595e-05
5.18244e-05
4.58753e-05
5.69095e-05
5.94712e-05
6.54741e-05
6.47021e-05
6.04661e-05
0.000126465
9.19173e-05
6.06282e-05
4.96439e-05
4.96716e-05
4.94857e-05
5.07652e-05
4.83574e-05
4.34735e-05
4.0474e-05
4.45464e-05
3.621e-05
4.58328e-05
3.34185e-05
4.80328e-05
5.90064e-05
6.33446e-05
5.78426e-05
5.36196e-05
0.000141208
5.4277e-05
2.42952e-05
3.11831e-05
2.65932e-05
5.0422e-05
3.61937e-05
3.76888e-05
3.77729e-05
3.45191e-05
4.93982e-05
4.01902e-05
4.28684e-05
4.03463e-05
5.10726e-05
5.40039e-05
5.72911e-05
6.183e-05
5.89383e-05
0.000147854
0.000113481
6.89769e-05
6.53604e-05
6.0955e-05
5.42605e-05
6.00008e-05
4.62252e-05
4.38304e-05
4.28109e-05
4.26575e-05
3.00568e-05
3.99785e-05
3.64637e-05
4.83199e-05
5.26558e-05
5.94227e-05
5.81961e-05
5.2498e-05
0.00018433
6.33515e-05
5.14827e-05
5.35453e-05
5.28331e-05
5.98289e-05
4.42362e-05
4.76772e-05
4.35124e-05
3.47273e-05
3.89628e-05
3.24189e-05
4.03145e-05
3.76149e-05
4.12364e-05
4.65797e-05
5.23226e-05
5.18178e-05
5.05142e-05
0.000208619
0.000148881
0.000115629
9.06585e-05
8.06785e-05
7.60725e-05
6.52621e-05
6.06756e-05
4.77189e-05
4.39953e-05
3.94076e-05
2.74938e-05
3.90529e-05
4.00639e-05
4.4459e-05
4.94287e-05
5.63005e-05
5.16227e-05
4.65692e-05
0.000250519
0.000143925
6.2986e-05
7.31444e-05
8.46903e-05
6.59941e-05
7.23699e-05
4.61326e-05
4.61003e-05
2.53134e-05
2.92694e-05
3.38189e-05
4.02588e-05
4.37068e-05
3.86691e-05
4.11849e-05
4.59437e-05
4.48418e-05
4.22703e-05
0.000254605
0.000219077
0.000144403
9.95757e-05
0.000100125
8.54729e-05
7.88532e-05
6.13865e-05
4.60418e-05
3.49224e-05
3.11053e-05
2.56575e-05
3.66966e-05
3.75511e-05
3.7299e-05
4.40932e-05
4.78026e-05
4.31161e-05
3.83915e-05
0.000285811
0.000139682
5.61104e-05
7.20999e-05
7.56676e-05
8.18496e-05
6.8839e-05
4.61279e-05
2.85901e-05
1.98188e-05
3.25051e-05
3.42597e-05
4.04236e-05
4.62455e-05
3.87322e-05
3.35173e-05
4.22242e-05
4.16303e-05
3.75791e-05
0.000263258
0.000226794
0.000147714
0.000127284
0.000102362
9.47532e-05
8.59504e-05
6.82007e-05
4.41799e-05
3.24125e-05
2.85433e-05
2.44315e-05
3.29555e-05
3.86757e-05
3.3515e-05
3.39132e-05
4.25519e-05
3.8371e-05
3.35546e-05
0.00034436
0.000138751
0.000108336
4.61843e-05
5.59091e-05
6.43344e-05
6.2509e-05
4.91532e-05
2.55506e-05
2.26766e-05
2.62032e-05
3.48524e-05
2.58693e-05
3.37552e-05
3.87708e-05
3.08855e-05
3.07722e-05
3.57204e-05
3.5218e-05
0.000291035
0.000203293
0.000162011
0.00010504
9.30696e-05
8.59383e-05
7.91445e-05
7.00102e-05
4.86069e-05
3.66507e-05
2.88371e-05
2.60299e-05
2.74139e-05
3.39142e-05
3.44828e-05
3.34479e-05
3.31639e-05
3.47178e-05
3.03055e-05
0.000298106
0.000131459
5.03945e-05
2.94898e-05
4.88152e-05
6.23893e-05
5.5588e-05
4.22216e-05
2.20628e-05
2.77373e-05
2.50688e-05
2.73687e-05
2.79593e-05
2.80678e-05
3.60675e-05
3.59531e-05
2.59821e-05
2.85979e-05
3.28969e-05
0.000245665
0.000174942
0.000118409
8.95902e-05
8.61953e-05
8.45225e-05
7.52563e-05
5.65701e-05
4.63992e-05
3.26407e-05
2.57848e-05
2.61647e-05
2.56863e-05
3.25016e-05
3.42973e-05
3.44517e-05
3.28171e-05
3.44361e-05
3.14674e-05
0.000136309
0.000122909
0.000113413
6.62109e-05
6.2126e-05
6.31555e-05
6.9533e-05
6.81109e-05
6.75699e-05
6.96236e-05
6.39454e-05
6.59453e-05
7.47845e-05
8.25082e-05
7.64024e-05
6.88763e-05
6.13892e-05
6.1545e-05
6.40446e-05
0.000100385
0.000145556
6.98283e-05
5.23097e-05
3.78637e-05
4.87617e-05
4.29977e-05
4.23814e-05
4.42437e-05
5.23873e-05
5.7894e-05
5.69793e-05
6.52493e-05
7.71319e-05
7.48666e-05
6.48741e-05
5.69872e-05
6.19495e-05
5.52358e-05
0.0001507
0.000135822
5.36691e-05
3.32472e-05
2.86694e-05
4.19511e-05
3.64382e-05
3.68454e-05
3.57864e-05
4.81306e-05
5.11922e-05
5.37942e-05
6.52684e-05
7.16484e-05
7.01122e-05
6.1431e-05
5.565e-05
5.98582e-05
5.77325e-05
0.000199071
0.000153948
6.62962e-05
3.54057e-05
4.09678e-05
2.40734e-05
1.48661e-05
3.74251e-05
3.97713e-05
5.0405e-05
5.48378e-05
5.64897e-05
6.57129e-05
7.33755e-05
7.00263e-05
5.82058e-05
6.08372e-05
6.91704e-05
6.09868e-05
0.000212704
0.000148797
7.26855e-05
3.76806e-05
3.41763e-05
2.32716e-05
1.6719e-05
2.04856e-05
3.63555e-05
4.99085e-05
5.29639e-05
5.35312e-05
6.62905e-05
7.08772e-05
6.38267e-05
6.23963e-05
7.04196e-05
7.05772e-05
6.50782e-05
0.000203005
0.000154545
6.43176e-05
4.74963e-05
2.96504e-05
2.1622e-05
2.45926e-05
1.88204e-05
4.1342e-05
4.48113e-05
5.42344e-05
6.01586e-05
6.73787e-05
7.24431e-05
7.08097e-05
7.10794e-05
7.28577e-05
7.4774e-05
7.10348e-05
0.00019564
0.000157181
5.95934e-05
1.80355e-05
2.93234e-05
2.93753e-05
1.87699e-05
2.91395e-05
2.59902e-05
5.02313e-05
5.10702e-05
5.9147e-05
6.41065e-05
7.75692e-05
8.15152e-05
8.04808e-05
8.43081e-05
8.3443e-05
7.48669e-05
0.000227887
0.000149534
5.20957e-05
3.12816e-05
3.34453e-05
2.6512e-05
2.48003e-05
3.24839e-05
3.73505e-05
5.96107e-05
6.38229e-05
6.59401e-05
7.06752e-05
8.77524e-05
0.000102221
9.85047e-05
9.1477e-05
8.38775e-05
7.1213e-05
0.000225723
0.000148161
5.82937e-05
4.29567e-05
4.39762e-05
3.94451e-05
2.07549e-05
2.34541e-05
5.19124e-05
4.9928e-05
7.47204e-05
8.09146e-05
9.0928e-05
0.000101471
0.000109187
0.000115466
9.77054e-05
8.1417e-05
6.84636e-05
0.000211748
0.000148617
6.00606e-05
5.9258e-05
5.73758e-05
6.414e-05
3.58593e-05
3.22264e-05
8.70637e-05
7.70413e-05
9.07979e-05
0.000102178
0.000100512
0.000105435
0.000107567
0.000108646
9.35311e-05
7.20025e-05
6.75247e-05
0.00024807
0.000132105
6.34131e-05
4.08538e-05
6.41358e-05
8.0119e-05
6.07851e-05
7.55217e-05
8.08447e-05
9.19867e-05
0.000102793
0.000106616
0.000101137
9.89842e-05
9.7005e-05
9.11862e-05
7.81764e-05
6.93555e-05
6.31689e-05
0.000241653
0.000162831
7.19479e-05
4.32527e-05
9.06567e-05
0.000111234
0.000102997
0.000113758
8.06994e-05
8.50212e-05
9.54222e-05
9.06092e-05
9.30189e-05
8.96895e-05
7.45102e-05
7.25879e-05
7.49453e-05
6.18054e-05
6.47561e-05
0.000247368
0.000142132
5.94092e-05
8.91505e-05
0.000125895
0.000118195
0.000126669
0.000118758
7.41919e-05
7.82765e-05
7.34696e-05
7.66256e-05
7.33882e-05
6.46103e-05
6.04141e-05
5.64187e-05
6.04354e-05
5.59326e-05
5.21737e-05
0.000270199
0.00015423
9.75767e-05
8.42904e-05
9.69723e-05
0.000104608
0.00011444
6.47691e-05
6.29327e-05
5.71152e-05
5.53641e-05
5.5599e-05
4.78913e-05
4.42392e-05
4.39453e-05
4.71842e-05
4.60052e-05
4.66825e-05
4.33623e-05
0.000207189
0.000172605
0.000116034
9.18506e-05
8.31297e-05
9.03443e-05
7.52391e-05
4.19613e-05
4.02514e-05
3.23488e-05
3.50462e-05
3.66929e-05
3.18647e-05
3.01423e-05
3.53345e-05
3.62329e-05
3.92937e-05
4.02934e-05
3.98596e-05
0.000317322
0.00016731
0.00011904
8.16083e-05
5.45699e-05
6.29295e-05
3.83835e-05
2.22439e-05
1.96722e-05
1.64441e-05
2.15553e-05
2.3062e-05
2.98361e-05
2.27761e-05
2.30789e-05
2.52218e-05
2.93439e-05
3.64294e-05
3.80986e-05
0.000231888
0.000183581
0.000121099
6.90154e-05