/*--------------------------------*- C++ -*----------------------------------*\
| =========                 |                                                 |
| \\      /  F ield         | foam-extend: Open Source CFD                    |
|  \\    /   O peration     | Version:     3.1                                |
|   \\  /    A nd           | Web:         http://www.extend-project.de       |
|    \\/     M anipulation  |                                                 |
\*---------------------------------------------------------------------------*/
FoamFile
{
    version     2.0;
    format      ascii;
    class       volScalarField;
    location    "345600";
    object      DSigmaHyd;
}
// * * * * * * * * * * * * * * * * * * * * * * * * * * * * * * * * * * * * * //

dimensions      [1 -1 -2 0 0 0 0];

internalField   nonuniform List<scalar> 
23248
(
7.23063
7.2479
7.27415
7.34856
7.61759
8.17578
9.60602
13.3528
24.0602
7.55288
7.582
7.64162
7.74184
8.17736
9.05708
11.3315
17.1946
31.5354
-0.358991
-0.379143
-0.35783
-0.281564
-0.0706602
0.482562
1.89518
5.4927
17.8991
4.44523
4.42892
4.46375
4.58007
4.90114
5.73889
7.99353
14.1354
30.2809
-0.195913
-0.174121
-0.15071
-0.0810819
0.105481
0.610911
1.89095
4.98635
15.1907
3.50845
3.53738
3.57273
3.68007
3.97118
4.74811
6.85659
12.6287
27.629
4.87007
4.90628
4.92786
4.99265
5.16585
5.62952
6.80439
9.62744
19.4968
7.62351
7.6038
7.63246
7.73226
8.00309
8.71569
10.636
15.8764
29.417
18.6335
18.6733
18.6956
18.7646
18.9752
19.4002
20.4212
22.5979
27.6767
9.29971
9.29205
9.32149
9.42453
9.69777
10.3838
12.1594
16.8011
28.3636
-17.3199
-17.3177
-17.3047
-17.2497
-17.0998
-16.6814
-15.6167
-12.8672
1.11307
-5.46447
-5.46662
-5.44716
-5.35903
-5.11301
-4.45576
-2.65615
2.28104
15.2453
-4.95414
-4.99413
-4.97993
-4.91777
-4.74706
-4.43524
-3.31485
-0.293838
10.2544
-1.60197
-1.63993
-1.61543
-1.51677
-1.24827
-0.549367
1.31382
6.32215
19.0269
3.07867
3.04051
3.05241
3.11623
3.31754
3.62161
4.73664
6.57015
12.733
0.728733
0.790369
0.823134
0.92124
1.17651
1.83067
3.52515
7.85699
18.3678
-0.765004
-0.782561
-0.778216
-0.658711
-0.466867
-0.0239007
1.27473
4.50571
11.0564
-2.55571
-2.53961
-2.49615
-2.38693
-2.12156
-1.42578
0.491571
5.70303
18.831
1.9957
1.90632
1.97034
2.04513
2.19554
2.50965
1.16592
5.14307
12.6481
-1.30274
-1.24967
-1.20442
-1.09959
-0.855634
-0.28536
1.23037
6.2367
18.7042
-3.96774
-3.98078
-4.06218
-3.95328
-3.70654
-2.66879
3.01345
2.75728
9.89081
-1.63384
-1.55606
-1.50569
-1.35825
-0.969633
-0.0537385
0.496706
7.73752
20.2362
1.84414
1.8183
1.86042
1.96961
2.23335
2.98148
8.72738
8.13817
18.3259
2.96044
3.0592
3.12702
3.28741
3.68829
4.67535
7.01489
12.2155
25.976
12.8938
12.9382
12.9774
13.0729
13.2779
13.6747
14.5475
17.6882
29.6324
11.6913
11.6876
11.7505
11.9096
12.293
13.2269
15.5628
21.4782
36.5697
-7.49863
-7.29016
-7.23674
-7.10536
-6.78604
-6.021
-4.19779
0.456314
33.9738
13.7847
13.8209
13.9033
14.1091
14.6098
15.8285
18.8111
26.0748
46.3851
-7.61839
-7.70376
-7.67312
-7.52305
-7.15011
-6.27297
-4.357
-0.0426175
24.6105
25.3115
25.3073
25.3947
25.6319
26.2212
27.6859
31.3661
40.4297
61.0176
22.9016
22.9615
23.0308
23.2208
23.659
24.6042
26.3456
29.6505
57.6051
49.9721
49.9847
50.1023
50.3931
51.0906
52.7913
56.9638
66.6983
87.1882
49.4496
49.3678
49.4448
49.6403
50.0723
50.9108
52.2222
54.2054
74.2125
54.5164
54.5228
54.6525
54.9823
55.7658
57.6388
62.0279
71.5937
89.7248
18.4202
18.3807
18.4877
18.7575
19.3601
20.6192
23.0697
28.7509
65.3219
39.8152
39.9044
40.0624
40.4384
41.3451
43.5333
48.7721
60.6733
88.4033
44.4356
44.3995
44.4764
44.6799
45.125
46.023
47.6579
50.8494
67.2745
39.5918
39.7182
39.8648
40.2138
41.0407
43.0032
47.661
58.3606
80.351
4.61564
4.67493
4.69324
4.75787
5.16838
5.5963
7.00569
10.6488
20.8568
-9.22726
-9.18242
-9.29827
-9.22126
-3.77078
-8.08334
-5.80093
9.25189
48.5203
6.20057
6.62343
7.58587
7.38697
8.2498
8.84955
11.6024
16.7913
30.2663
4.29517
4.27388
4.78425
4.83163
5.17443
5.48002
7.46669
13.0675
28.1286
3.32892
3.37712
3.40108
3.42466
3.74055
4.64133
6.77393
12.1731
28.9536
2.35823
2.40381
2.39774
2.57594
3.03813
3.99059
6.28876
12.0611
24.1693
-10.5054
-10.4566
-10.2771
-10.1175
-9.80796
-8.81165
-6.3742
-0.0717777
25.1016
7.9041
7.94189
8.00783
8.19294
8.59559
9.62353
12.0202
17.8713
36.2595
-12.5178
-12.5022
-12.4349
-12.2599
-11.8751
-10.8353
-8.46683
-2.4549
18.4368
-0.844348
-0.86803
-0.803465
-0.602794
-0.457098
0.707155
3.2746
9.15656
29.0703
4.89979
4.89164
4.97204
5.18715
5.57616
6.74937
9.14074
14.3928
32.1541
6.83901
6.85018
6.92263
7.11074
7.56082
8.58666
10.9672
16.4984
37.6732
16.9883
16.9138
16.9865
17.1853
17.6712
18.8171
20.986
26.1757
46.4425
35.0196
35.1049
35.1931
35.3914
35.838
36.8097
39.0114
43.5556
60.2285
36.1388
36.188
36.2783
36.4893
36.9616
37.9868
40.1743
45.1756
62.2721
28.8354
28.8573
28.9579
29.1974
29.7301
30.8843
33.3554
39.1195
61.0169
16.0202
16.0611
16.1729
16.4367
17.0297
18.2655
20.9049
26.8548
45.2675
34.3796
34.4097
34.5207
34.7764
35.323
36.5174
39.0074
44.6371
64.6194
19.6619
19.6534
19.7662
20.0361
20.6233
21.8671
24.4803
30.4511
50.8542
3.38051
3.41268
3.46665
3.59293
4.03614
4.93923
7.3909
13.8497
30.2466
-5.42491
-5.25351
-5.16986
-4.95519
-4.0906
-3.44278
-0.681168
6.18078
25.1962
3.65106
3.81543
5.83942
6.1585
6.6629
5.62551
8.4427
18.1688
36.5818
1.94926
2.02723
2.36042
2.5664
2.99986
3.98481
7.23269
16.0609
37.1377
3.72334
3.87252
3.94921
4.15663
4.70855
6.11057
9.6922
18.8529
40.405
-0.738976
-0.66178
-0.563239
-0.290914
0.334006
1.86641
5.73272
15.4762
39.5489
-3.93997
-3.7943
-3.67911
-3.42318
-2.79788
-1.22959
2.73164
12.8314
37.2346
-2.24717
-2.13801
-2.02859
-1.76167
-1.09923
0.55459
4.6657
14.7827
37.7015
-1.32003
-1.25183
-1.15197
-0.901456
-0.256141
1.39232
5.43176
15.0236
35.1605
-3.22044
-3.16722
-3.06057
-2.78358
-2.09648
-0.451505
3.5963
13.4878
37.7826
10.4291
10.5371
10.6656
10.9707
11.6827
13.4257
17.6281
27.5132
48.5826
20.1132
20.1323
20.2438
20.5322
21.2313
22.9298
27.1028
37.1525
59.3502
30.3499
30.3641
30.4797
30.7801
31.5008
33.2207
37.3594
47.2049
67.9923
38.9844
39.0138
39.1435
39.4585
40.1946
41.9257
46.011
55.4416
75.1277
37.0907
37.0959
37.2317
37.5691
38.3462
40.1304
44.2706
53.8141
74.0321
28.9746
29.0543
29.2158
29.6005
30.4794
32.4883
37.07
47.418
70.4117
22.703
22.7859
22.9624
23.3725
24.2967
26.3721
31.0495
41.4822
63.8532
31.7279
31.8243
32.007
32.4275
33.3652
35.4501
40.0868
50.2862
71.7032
21.9695
22.0719
22.2604
22.6925
23.6522
25.7804
30.5226
41.0322
63.4037
26.7978
26.9413
27.9182
31.5357
33.9656
33.9113
34.0887
31.0243
29.8107
30.2212
30.3858
30.6209
28.5298
24.2471
19.2287
18.7702
18.2582
17.2951
18.9328
30.1705
30.2769
28.251
29.8294
29.5408
30.1517
29.0919
26.9792
26.9165
27.6816
28.2478
31.2628
29.3148
24.0974
20.8436
17.7217
17.853
14.2134
20.9086
28.3596
30.3796
31.7961
30.1144
32.0299
30.3446
28.5173
27.4052
27.6235
28.2863
26.1297
27.414
27.8947
26.4477
21.682
18.0762
18.7021
19.919
22.7009
29.4738
28.7789
28.2145
27.6644
28.5816
27.9907
25.5345
24.9595
23.6212
30.8688
24.1064
24.7188
26.7096
24.9448
22.0215
18.9954
17.2854
18.0977
15.8878
27.2232
29.1525
29.9708
28.0576
30.2073
29.5604
26.0906
25.0461
26.2019
20.3779
27.2155
19.3811
29.8201
25.8348
23.8264
21.2704
19.0792
23.6544
21.5916
26.4925
26.8244
28.0741
28.2573
29.8038
28.2344
26.1334
26.2987
26.474
24.6274
28.991
19.971
22.3556
26.0964
23.7927
21.4481
19.8964
19.374
19.0171
21.8852
23.3957
24.045
26.3186
28.0613
26.801
26.7257
28.5705
29.7228
29.4641
17.6972
25.0281
26.5157
29.4831
34.285
15.8367
18.8884
18.7818
21.4747
24.2021
24.4214
24.4897
25.9944
27.6496
27.5932
27.221
32.0348
32.2779
27.6014
24.6957
26.8683
19.347
34.206
27.4338
22.6837
15.1913
19.7812
18.094
21.3405
21.0223
21.2145
24.9128
27.4639
30.3308
31.9647
36.615
34.7793
28.7596
27.1142
20.4595
19.0456
24.9044
30.8059
35.0686
15.3086
21.1823
20.4418
22.1535
21.954
22.3912
24.0802
28.4619
30.2182
33.8495
35.9914
34.7251
30.1216
25.5811
25.2071
22.3883
16.5636
34.054
30.892
20.8679
22.3666
19.9794
20.3852
19.6433
21.6988
24.7463
28.1338
34.2043
38.2618
38.9491
35.6633
30.3781
25.3635
24.3928
17.3818
21.578
25.2539
31.0113
32.1456
20.8458
20.7104
21.4972
22.0411
23.1655
25.3801
24.7443
33.2795
36.4931
36.7284
33.1486
29.3805
26.6943
21.2226
24.04
20.9977
18.8562
33.5712
29.9225
19.0231
16.3106
20.6858
23.0976
24.4912
24.9912
28.7352
34.7472
37.7003
37.5587
32.8763
28.0043
25.2675
21.3825
24.1022
17.4431
23.0992
22.7498
29.4828
21.7631
22.3054
22.9402
24.6904
25.0649
24.9239
28.4898
33.0409
33.6601
36.2606
31.3797
25.7847
22.3402
23.0084
19.5377
25.2244
20.5269
19.7827
31.0594
27.8287
17.8582
23.7973
27.0061
23.9343
30.5106
26.7943
32.097
34.2233
33.3576
31.6012
22.4466
21.072
22.2845
19.3707
24.4779
17.406
21.0403
18.4986
27.6932
23.9501
25.2275
26.4275
19.752
32.0572
26.8358
28.3357
32.0523
25.9731
30.157
22.992
19.9907
20.1067
22.1022
17.2703
25.5663
21.2721
21.833
23.2259
29.2852
26.5518
25.0443
24.0627
22.7008
30.9319
28.3044
26.5687
22.6624
22.6206
21.5487
16.0849
19.5271
19.2001
17.8026
25.6841
18.3472
19.6664
19.1452
23.8623
26.294
22.5609
26.728
20.7462
29.7936
26.0231
21.1057
24.8659
16.832
23.2349
16.8102
18.5918
18.9207
21.7643
17.2722
13.9249
21.7046
23.1737
23.7454
25.9493
24.8006
22.5889
23.8441
21.3803
26.014
19.5447
18.4502
15.0966
18.5441
19.0783
14.9212
18.5848
14.5832
20.5055
20.09
21.7888
23.5672
25.8357
22.617
25.7982
19.5878
25.4632
19.0777
23.2545
19.6273
13.0553
19.7377
12.7912
22.1108
14.3949
17.6348
17.9812
22.1955
20.0312
20.5259
23.2691
27.225
23.6106
23.3171
24.6552
20.6633
21.247
18.7505
13.1612
13.1416
18.3403
17.1904
16.5029
18.7831
17.2351
14.7238
18.1886
21.8637
22.099
25.5877
28.9457
24.8435
21.7423
23.3246
17.0354
19.2478
14.9133
15.7196
15.7659
10.3059
19.8198
10.3152
21.3905
14.2114
13.685
20.0368
20.3498
21.2731
22.557
26.4803
25.1433
23.4003
17.9665
19.6899
17.8962
12.6117
12.9704
18.3579
11.8585
13.7825
15.5814
16.599
18.748
16.0949
14.2207
22.8088
23.0642
25.7165
29.9665
22.8834
22.6275
17.2556
18.1137
13.4697
13.899
11.0773
15.1924
15.5236
7.67614
19.1581
9.71961
21.9674
14.2177
14.8981
22.5336
21.7451
22.6099
24.3057
25.3638
20.9541
17.6492
11.8155
12.929
12.2133
10.125
11.2391
10.7258
10.2897
17.6439
12.411
12.6593
17.4921
18.4748
20.9545
24.0472
24.4062
28.7447
23.292
21.5631
18.107
12.5244
12.89
9.77164
10.9965
10.7412
12.6274
15.3179
8.52352
18.7572
10.0587
21.5514
15.3884
20.8171
22.0764
21.5625
24.2243
24.5401
19.5669
13.7224
13.1317
8.58991
10.7603
10.6077
10.1834
10.3019
18.0938
10.7374
15.0278
18.4766
11.5703
20.817
21.7827
24.137
24.4512
26.628
22.385
18.6127
17.2378
13.2914
11.0729
10.5582
9.93997
10.5021
11.1987
15.4285
16.4248
9.09349
21.1771
12.3368
22.2538
21.0332
23.3815
21.4788
23.2737
22.2019
17.8602
13.555
11.6657
10.8872
8.0218
9.46641
9.18323
10.3002
10.2543
18.7803
14.4253
19.106
23.1662
20.898
24.0127
23.894
23.3324
26.6076
20.8936
18.0843
14.442
13.0979
11.0894
9.39369
9.4
9.65113
11.197
12.874
17.6491
17.6455
17.6979
19.8342
14.8811
22.0404
23.8794
21.9237
24.6084
18.9959
16.6248
12.9944
12.5249
11.4738
10.153
8.9514
10.1626
10.038
12.0095
14.1574
18.0894
20.6325
21.5938
23.3213
26.5066
23.6866
24.6612
25.0835
18.173
15.6029
13.3536
12.244
12.2206
9.90094
9.35566
9.83405
10.6073
13.0943
15.2298
16.343
19.7705
20.7551
20.7205
23.9267
24.2367
22.6522
24.2336
17.7959
12.3403
16.4576
12.0618
12.0601
11.4444
10.2943
9.90273
12.0501
13.8248
17.3044
20.6869
23.5015
23.2551
26.4452
26.2216
26.0229
25.1753
25.5045
15.7289
14.4689
15.3791
13.1856
11.8121
11.4395
10.5865
10.6321
11.715
13.5914
16.2896
19.7068
22.0398
22.5433
23.2002
24.9361
25.2817
23.3289
25.2005
16.6974
15.5665
11.1838
15.0791
12.1857
12.8496
12.3014
12.535
14.5381
16.9958
20.848
25.5607
27.468
27.5372
26.9738
25.4109
24.9337
25.0697
25.246
14.6611
10.853
15.4927
15.4343
12.889
13.2691
11.5901
12.3768
14.0522
16.3847
19.6507
23.2402
25.1928
25.2758
24.3391
25.7234
23.5948
22.4927
24.7034
16.6884
16.3011
15.2578
10.8437
14.5046
14.2269
15.3959
17.2622
18.2926
21.7401
25.4202
29.1237
29.8499
29.0623
22.7587
22.6987
21.9963
23.3719
25.6414
15.359
15.4252
11.608
15.3417
16.9105
14.2403
16.4728
15.8196
17.3549
21.0527
22.3891
26.5936
28.749
26.7707
25.1831
24.232
22.2543
22.0355
25.0895
50.7592
68.8687
49.8309
45.713
56.9672
46.1156
49.9544
41.2141
39.6483
42.3539
40.5869
38.1668
40.2476
42.1078
36.2594
31.1627
30.8849
30.0818
29.4491
56.2196
59.6137
47.8702
44.2821
45.0817
41.4033
44.0006
33.5535
31.2029
39.5094
38.732
36.1542
38.0818
38.8841
33.2661
30.4289
33.0888
31.4676
30.4842
54.2691
53.9767
38.9398
38.774
41.6744
48.8412
51.1393
43.7492
45.2663
48.8523
46.5185
41.987
45.9734
44.2071
37.8606
33.847
33.4255
29.8253
26.5439
50.6727
51.2057
41.8724
37.8131
37.0588
40.9083
41.2059
39.3351
38.6673
42.1369
38.9113
41.9245
43.1108
39.462
37.7498
34.8618
32.4847
29.5743
28.2247
51.5895
49.0953
33.1348
36.6987
42.7366
45.3942
47.4086
46.4208
44.4471
43.9877
42.9048
41.5665
43.8301
43.3668
37.7466
36.8956
34.6055
29.3898
27.7128
45.9038
47.1637
37.9766
35.0298
37.217
36.8719
36.0862
35.2233
39.5953
42.971
42.8056
39.5107
42.45
41.0937
37.3603
36.0803
32.6387
25.1583
27.2486
54.7828
42.5607
33.689
31.8661
34.1482
39.823
43.5727
44.7341
44.441
36.8334
39.0326
44.2175
39.3294
38.9631
38.6228
38.9581
33.0196
29.4029
28.2101
52.5653
41.1386
34.0611
31.1305
32.0617
32.891
34.0952
35.7321
38.9121
39.4026
40.1523
43.3176
39.7
38.8955
37.8498
36.7863
32.7686
27.4365
25.4056
49.1565
42.2494
32.6857
31.3859
31.7684
34.0092
35.2002
36.654
40.1823
35.4856
38.7554
42.6306
42.3572
41.6577
38.8869
38.3595
34.2566
30.5984
22.7714
46.7407
41.8631
32.2173
28.642
28.4682
28.9361
30.6754
33.6291
36.5545
35.3832
38.7862
43.5465
38.5901
39.2093
38.7811
38.1451
33.5545
30.6318
24.8365
34.8327
42.1975
25.0087
26.0996
25.7034
23.8717
28.3424
32.2026
37.9035
31.9929
37.9088
42.1005
40.9052
41.2101
40.1634
37.9306
35.2848
28.2341
20.9691
37.3402
40.5298
29.8101
25.681
22.9627
23.3516
25.6744
29.8736
32.1848
31.4578
36.9046
42.0265
39.0562
38.9125
41.7341
38.1953
30.6673
28.2825
24.1963
45.8209
32.7381
17.224
20.839
22.2995
17.7704
24.9468
30.5388
34.2022
29.8939
35.3753
37.2178
37.695
40.629
42.1378
38.0148
32.486
24.1968
20.8012
42.0873
32.5928
26.1761
25.3454
23.3568
19.1982
20.8072
26.2606
28.2121
29.7219
36.5419
36.9954
36.7095
40.5291
42.089
34.0819
29.8168
26.9846
24.4451
40.0312
29.9156
21.3949
24.3412
17.8045
20.7361
20.0541
22.2579
27.9905
25.475
28.6881
34.4317
36.528
40.0592
43.0398
36.3653
26.4758
25.9583
24.2855
38.0391
31.9747
26.2478
26.8971
22.5818
20.4572
19.7209
21.3778
24.7752
26.288
29.421
35.4409
34.3807
39.9264
38.4292
32.0973
28.1801
28.0379
26.6204
54.1625
20.4066
19.1928
15.3209
16.6582
19.4991
17.6079
23.4171
23.4538
24.1944
30.2974
31.7872
34.6624
39.1855
37.2944
30.8907
27.8717
30.2649
30.1836
41.1405
29.3701
22.7451
20.8609
21.199
20.8327
20.1313
21.0992
21.1213
24.1092
27.2987
29.924
32.0636
37.3262
33.3394
30.0414
28.4786
30.7999
29.8477
49.6789
25.0978
14.8451
21.8838
17.3071
14.0298
20.083
21.4153
27.2385
25.9568
28.727
28.6678
31.2268
34.341
32.1286
27.807
30.787
34.8873
32.527
38.6683
32.4786
23.4395
20.7173
19.1058
19.5074
18.2556
19.4312
22.0754
24.832
27.4174
27.4872
31.0788
31.3969
28.8819
27.2228
31.2843
33.896
30.7152
48.6392
29.0055
21.7247
20.5543
17.1629
20.7838
19.1399
19.6663
23.4162
24.7208
24.9972
25.2697
29.8331
30.9784
28.4081
25.3013
34.5547
36.3384
29.9096
40.8953
30.937
23.5053
18.9477
17.2876
22.5559
19.837
18.7186
21.2908
23.568
26.1111
24.999
27.3891
28.0974
26.7526
27.7028
34.0675
33.0901
23.3773
55.5704
28.4334
15.6943
10.5514
19.4848
22.9151
20.4812
21.9672
22.4223
14.767
23.9837
24.3622
27.5382
28.1835
27.4457
29.4242
35.317
34.8978
29.2374
46.2117
35.4857
24.5949
19.917
19.2872
23.3492
21.0851
20.7606
22.2862
19.8978
23.1049
22.4529
26.4329
21.8393
25.1131
29.1054
32.7885
29.7943
26.7985
68.2368
34.3385
11.5032
14.5711
19.9113
16.5202
22.3694
23.0696
24.4915
15.7442
23.2003
24.2298
25.9122
22.9377
28.4547
29.7356
32.737
32.351
30.2331
63.2323
45.9586
30.3141
24.822
24.8358
24.7429
25.3826
24.1787
21.7367
20.237
22.2732
18.105
22.9164
16.7093
24.0164
29.5032
31.6723
28.9213
26.8098
70.6041
27.1385
12.1476
15.5916
13.2966
25.211
18.0969
18.8444
18.8864
17.2596
24.6991
20.0951
21.4342
20.1732
25.5363
27.002
28.6455
30.915
29.4692
73.9271
56.7403
34.4884
32.6802
30.4775
27.1303
30.0004
23.1126
21.9152
21.4054
21.3288
15.0284
19.9892
18.2318
24.16
26.3279
29.7113
29.0981
26.249
92.1652
31.6758
25.7413
26.7726
26.4165
29.9145
22.1181
23.8386
21.7562
17.3636
19.4814
16.2094
20.1573
18.8075
20.6182
23.2899
26.1613
25.9089
25.2571
104.309
74.4404
57.8145
45.3292
40.3393
38.0362
32.6311
30.3378
23.8594
21.9976
19.7038
13.7469
19.5265
20.0319
22.2295
24.7144
28.1503
25.8114
23.2846
125.26
71.9625
31.493
36.5722
42.3452
32.9971
36.185
23.0663
23.0501
12.6567
14.6347
16.9094
20.1294
21.8534
19.3345
20.5924
22.9719
22.4209
21.1352
127.302
109.539
72.2014
49.7879
50.0626
42.7364
39.4266
30.6933
23.0209
17.4612
15.5526
12.8287
18.3483
18.7755
18.6495
22.0466
23.9013
21.5581
19.1957
142.906
69.8412
28.0552
36.0499
37.8338
40.9248
34.4195
23.0639
14.2951
9.90939
16.2525
17.1298
20.2118
23.1228
19.3661
16.7587
21.1121
20.8151
18.7896
131.629
113.397
73.857
63.6418
51.1812
47.3766
42.9752
34.1003
22.09
16.2062
14.2717
12.2158
16.4778
19.3379
16.7575
16.9566
21.276
19.1855
16.7773
172.18
69.3753
54.1681
23.0921
27.9546
32.1672
31.2545
24.5766
12.7753
11.3383
13.1016
17.4262
12.9347
16.8776
19.3854
15.4428
15.3861
17.8602
17.609
145.518
101.647
81.0055
52.5201
46.5348
42.9692
39.5722
35.0051
24.3035
18.3253
14.4185
13.015
13.7069
16.9571
17.2414
16.724
16.5819
17.3589
15.1527
149.053
65.7295
25.1973
14.7449
24.4076
31.1947
27.794
21.1108
11.0314
13.8686
12.5344
13.6844
13.9796
14.0339
18.0338
17.9765
12.9911
14.2989
16.4484
122.833
87.4709
59.2045
44.7951
43.0976
42.2613
37.6281
28.285
23.1996
16.3204
12.8924
13.0823
12.8432
16.2508
17.1487
17.2259
16.4086
17.2181
15.7337
68.1544
61.4545
56.7066
33.1054
31.063
31.5778
34.7665
34.0554
33.7849
34.8118
31.9727
32.9726
37.3922
41.2541
38.2012
34.4381
30.6946
30.7725
32.0223
50.1925
72.7781
34.9142
26.1548
18.9318
24.3809
21.4988
21.1907
22.1219
26.1936
28.947
28.4896
32.6247
38.5659
37.4333
32.4371
28.4936
30.9748
27.6179
75.3498
67.9109
26.8345
16.6236
14.3347
20.9755
18.2191
18.4227
17.8932
24.0653
25.5961
26.8971
32.6342
35.8242
35.0561
30.7155
27.825
29.9291
28.8662
99.5354
76.974
33.1481
17.7028
20.4839
12.0367
7.43303
18.7125
19.8856
25.2025
27.4189
28.2449
32.8564
36.6877
35.0132
29.1029
30.4186
34.5852
30.4934
106.352
74.3986
36.3428
18.8403
17.0881
11.6358
8.3595
10.2428
18.1778
24.9542
26.482
26.7656
33.1453
35.4386
31.9133
31.1981
35.2098
35.2886
32.5391
101.502
77.2724
32.1588
23.7481
14.8252
10.811
12.2963
9.41021
20.671
22.4056
27.1172
30.0793
33.6894
36.2215
35.4048
35.5397
36.4289
37.387
35.5174
97.8199
78.5906
29.7967
9.01776
14.6617
14.6877
9.38495
14.5697
12.9951
25.1156
25.5351
29.5735
32.0532
38.7846
40.7576
40.2404
42.154
41.7215
37.4334
113.943
74.7668
26.0478
15.6408
16.7227
13.256
12.4002
16.2419
18.6752
29.8054
31.9114
32.9701
35.3376
43.8762
51.1105
49.2524
45.7385
41.9387
35.6065
112.862
74.0806
29.1469
21.4783
21.9881
19.7225
10.3775
11.727
25.9562
24.964
37.3602
40.4573
45.464
50.7356
54.5937
57.7332
48.8527
40.7085
34.2318
105.874
74.3087
30.0303
29.629
28.6879
32.07
17.9296
16.1132
43.5318
38.5206
45.399
51.0889
50.2562
52.7174
53.7836
54.3228
46.7656
36.0013
33.7624
124.035
66.0526
31.7066
20.4269
32.0679
40.0595
30.3926
37.7608
40.4224
45.9933
51.3967
53.3079
50.5685
49.4921
48.5025
45.5931
39.0882
34.6778
31.5844
120.827
81.4155
35.974
21.6264
45.3283
55.6169
51.4987
56.8789
40.3497
42.5106
47.7111
45.3046
46.5095
44.8447
37.2551
36.294
37.4727
30.9027
32.3781
123.684
71.0662
29.7046
44.5753
62.9473
59.0976
63.3347
59.379
37.0959
39.1382
36.7348
38.3128
36.6941
32.3052
30.207
28.2094
30.2177
27.9663
26.0869
135.1
77.1151
48.7883
42.1452
48.4862
52.3042
57.2201
32.3845
31.4664
28.5576
27.6821
27.7995
23.9457
22.1196
21.9726
23.5921
23.0026
23.3413
21.6812
103.595
86.3025
58.0171
45.9253
41.5649
45.1721
37.6195
20.9807
20.1257
16.1744
17.5231
18.3465
15.9323
15.0711
17.6673
18.1165
19.6469
20.1467
19.9298
158.661
83.6552
59.52
40.8042
27.285
31.4648
19.1918
11.122
9.83609
8.22207
10.7777
11.531
14.918
11.3881
11.5395
12.6109
14.6719
18.2147
19.0493
115.944
91.7903
60.5493
34.5077
20.4945
26.0177
21.1211
11.3085
5.54007
5.2132
5.3704
4.61537
8.85301
9.82803
6.32043
8.95577
9.94452
14.8032
17.083
140.676
87.29
49.5431
26.3828
16.0057
27.4556
21.9584
10.2041
2.86556
0.485082
-0.456223
1.24438
2.52601
6.25276
4.70718
5.19398
7.22625
10.4925
15.6846
119.011
96.2673
47.6732
43.8673
31.3725
23.5022
22.3209
7.68384
0.338314
-3.41854
-4.44831
-1.8325
0.0666869
0.906219
2.7305
1.61932
5.22845
7.15347
11.6142
59.6171
60.2793
51.989
44.6766
48.0624
48.2462
34.3475
35.2061
36.8443
34.9482
31.0711
30.8914
36.7128
40.4212
35.6052
29.8658
31.5347
32.1308
31.5706
60.2004
74.6394
53.0122
43.1256
43.4612
41.7417
16.5285
23.3503
26.2522
27.9913
28.8072
30.0901
34.9557
38.1873
33.1434
32.0764
31.9241
34.9415
32.0015
72.8056
70.8916
53.7364
40.1788
38.8507
33.7129
21.9388
19.6378
21.3706
27.037
29.1609
28.9923
33.1565
37.0444
33.0963
29.9305
32.0991
34.4393
31.1125
89.8204
72.3933
53.595
37.16
35.9594
22.9631
14.8177
18.0516
23.0138
26.7893
27.5871
27.8645
34.1466
38.7112
32.7554
31.12
34.4787
34.5648
30.8077
89.6962
72.9647
54.4768
35.6364
28.3529
22.2204
9.00531
11.3916
21.3345
29.553
26.3509
28.3729
35.4035
37.567
33.0427
33.874
34.9098
35.4108
32.3883
90.0448
69.2753
50.6446
33.4787
24.0261
10.7846
16.2114
17.6484
20.2222
25.3209
28.8889
29.0353
35.0086
36.6523
36.3529
37.6693
36.0503
38.434
34.3399
87.1312
72.3524
42.9268
23.5402
20.166
18.083
15.0903
18.2512
17.6864
24.505
27.2919
31.3209
36.1659
37.7203
37.8621
39.7127
41.1045
40.0938
34.5045
90.2486
70.2281
41.1416
25.7188
17.767
12.9944
13.607
16.9701
25.8348
26.2528
29.7611
34.658
37.7193
45.3172
46.306
44.8872
44.6308
40.0763
32.9531
88.8431
70.4853
42.6451
28.6949
19.816
15.3565
11.1653
15.8678
27.5047
24.9703
33.7416
39.56
45.2417
51.8595
54.0366
52.1724
43.7933
41.4455
33.4925
88.4766
71.2027
44.3953
31.4649
25.5064
21.0975
15.0515
7.02589
36.9061
31.5311
41.1064
48.5459
48.0813
49.7493
53.5117
51.0663
40.3667
36.5084
33.4651
96.2719
74.8699
46.3171
31.2481
26.1908
25.349
14.2653
15.3596
39.1354
43.4324
46.3768
48.6968
46.1023
48.4214
47.8108
43.9111
38.1436
31.7736
30.4422
108.416
86.6058
55.0543
38.5473
38.5412
38.4688
28.9351
29.7234
30.8707
32.3347
42.3191
43.9925
44.6907
38.6977
38.4246
35.359
34.6193
31.3896
28.5428
112.103
93.5426
65.1093
51.0628
51.3223
48.4958
37.0849
33.5782
30.3342
32.3208
32.3946
33.8078
36.0872
29.8555
30.2427
29.5506
28.752
27.5276
24.4057
114.302
96.9125
76.9696
62.4467
57.0673
49.3382
43.6803
30.9239
29.0935
24.6382
24.662
24.7074
20.5535
21.3786
21.4857
22.8559
22.6267
22.9013
23.3576
104.678
100.313
86.9526
69.4116
54.1807
46.5358
34.6242
22.9389
19.4455
12.5924
15.1772
15.7902
13.2968
14.0936
15.7273
16.5878
18.368
18.4356
19.793
114.452
104.701
84.1038
65.7164
50.901
40.2008
24.9048
15.3768
11.2464
5.45594
6.90938
8.45347
11.0139
8.98426
10.5802
11.1663
12.9926
15.061
17.9186
108.16
102.866
80.4815
63.4205
47.3985
38.4411
26.6944
14.9336
6.60453
3.21888
2.04526
2.6479
4.69932
6.12456
4.28181
7.07038
7.43408
11.9813
13.9119
107.489
100.33
74.6208
58.5763
43.7381
38.0122
29.667
14.7252
4.62643
-0.0382797
-1.21236
-0.770813
-0.563449
2.51708
1.64133
3.37634
4.80145
8.07234
11.8389
101.733
99.9418
75.4434
60.7118
46.9574
37.2148
29.4504
16.9781
4.49587
-1.10236
-4.86656
-4.784
-3.63244
-1.73646
-2.47622
0.174738
3.39199
4.09284
8.14963
115.306
87.9443
47.0782
29.0113
13.6823
25.596
19.045
4.9045
-2.33122
-4.92831
-6.04308
-2.80425
0.136652
-0.134677
1.85143
5.82778
7.75253
9.49524
15.6704
96.9788
94.3107
72.8262
55.203
43.9527
37.6898
31.6002
17.1187
2.15904
-2.80951
-7.06024
-7.19701
-4.78433
-3.46559
-4.15185
-1.84405
1.18123
5.00551
9.47754
114.553
77.9979
38.2166
25.9398
14.212
29.3196
26.1285
0.726383
-5.08653
-6.07518
-4.77373
-2.94719
-0.698663
2.61287
1.77508
3.20095
6.09945
9.5823
14.8811
100.672
89.3787
65.6218
51.5908
42.0246
35.476
27.1388
9.25173
-1.70232
-5.87638
-6.6799
-5.92235
-4.98296
-1.8066
-0.203763
3.10549
3.89539
7.59079
11.6298
100.69
78.5968
39.9136
29.4872
9.37159
35.94
28.4283
-0.677811
-2.88608
-3.27008
-1.80029
-0.0429675
2.99164
3.83389
2.59728
7.49782
9.1229
14.2292
17.9156
95.2091
86.2494
68.4456
52.6969
39.8196
32.7914
22.5718
5.22224
-2.83875
-3.68441
-5.46801
-4.32339
-2.69592
-0.164143
-0.99235
3.68603
4.67092
11.0915
14.0111
121.481
81.0242
48.8997
29.7879
17.7328
-2.88567
-8.10682
-1.96149
-0.503589
-1.14063
0.382218
3.4551
8.49848
4.35765
6.7425
9.12669
12.4742
17.2459
21.6524
100.222
90.6049
71.3037
57.1112
40.7725
27.1556
13.9575
1.48169
0.256855
-2.78073
-2.11536
-0.893587
2.72327
1.0351
3.67831
5.48452
10.3172
13.9096
17.2009
116.704
77.5026
44.5057
23.3218
17.9428
5.424
-3.25727
1.63441
1.17503
3.09583
3.72309
6.70116
8.41144
8.30661
10.6839
12.9503
17.56
20.9798
23.6569
104.791
95.635
70.9217
53.8467
40.3872
26.8065
14.9663
6.32919
1.03271
-0.143233
-0.302571
4.9811
4.33974
5.57426
6.95751
10.1196
14.8464
16.267
19.2568
108.84
83.6915
45.7252
23.447
14.0281
8.45164
11.0083
8.83634
8.3011
8.68204
10.7918
12.5194
9.94562
14.9364
14.2096
19.4033
23.1129
24.3612
22.5964
107.53
97.8205
79.5975
55.45
38.0121
25.6817
16.1884
2.80749
-1.43434
4.38194
6.71634
8.33508
7.3191
11.7001
10.3316
17.1108
18.5846
19.2355
20.311
86.4344
69.7622
31.7849
31.2091
29.074
17.4577
9.87242
16.1714
15.657
14.6115
17.1152
18.827
18.7776
19.3511
20.5961
24.7118
27.5965
25.4884
24.9719
98.4518
94.3512
65.1473
52.8982
40.4493
29.233
20.979
9.01189
8.74491
13.6646
13.4998
15.8286
16.7411
16.4127
20.2212
21.7091
22.4744
21.8038
22.3457
101.501
51.5688
41.6723
42.7685
30.0399
33.2738
29.452
28.0376
26.4522
23.2706
23.0889
26.4416
28.275
25.8287
27.581
31.4129
31.6609
28.4359
26.6368
80.7842
76.9212
55.8433
56.2031
39.3817
31.6186
27.8401
22.8281
20.6632
19.2063
17.5572
24.3491
23.9591
25.298
27.4399
27.6128
29.0242
25.2777
22.7859
99.3194
63.4891
37.0333
42.5856
45.7031
33.366
39.6712
27.5432
25.7439
30.4638
33.1752
37.3711
35.2959
31.6194
31.5169
35.5597
31.7391
31.6166
30.0303
83.1829
66.7679
49.0102
45.0606
42.683
36.0985
31.4689
28.8335
26.7515
29.9867
29.0577
34.5971
33.4813
30.7905
29.4479
31.3217
31.9634
29.2721
26.5479
102.536
58.3994
28.7068
23.9201
35.988
35.7678
34.4859
39.9352
36.916
39.5962
42.3626
43.4316
38.0982
35.6813
35.7318
40.3812
36.9111
35.843
32.4593
78.028
57.4253
39.3948
31.7845
31.5393
33.8314
34.3009
37.605
37.0148
39.2805
37.1881
43.0579
37.532
36.685
35.6059
38.3636
35.6852
30.8997
29.8457
99.3148
62.946
27.1233
18.9103
19.1657
13.6243
22.5374
34.5483
39.4652
38.0416
41.1583
43.191
40.7564
37.8459
41.0585
41.976
40.2414
39.2338
34.9116
76.571
55.9332
32.1406
23.6305
24.9807
26.138
31.176
37.1849
43.1357
44.8889
37.1024
40.9753
37.922
38.3402
40.4418
41.0822
37.252
36.3021
29.9556
104.668
55.4953
23.5333
11.9965
20.4282
21.4489
23.3693
22.815
32.36
32.7727
36.0201
39.3454
39.9026
36.9924
35.3551
40.2779
40.8147
37.8372
34.3907
77.2175
52.6367
29.7331
18.1673
20.5775
23.2755
30.9198
35.0194
36.3086
34.8234
34.4069
38.4923
39.0454
38.356
37.4028
37.397
35.4758
34.6599
29.0341
65.1705
65.4765
25.3447
1.86484
0.815334
23.898
18.5426
20.4436
22.3177
24.7717
28.1748
33.3727
35.0166
32.5892
31.6376
34.0997
38.5106
37.4595
31.1621
66.8284
56.201
31.1366
18.2716
20.9308
26.5174
26.9897
25.8873
21.7615
25.897
27.6421
31.9623
33.9295
32.0811
31.8624
34.9186
37.0653
33.1396
27.1978
95.0346
68.239
33.6136
2.74403
1.7499
16.3186
20.8457
14.8073
23.9253
24.1346
25.8085
28.1955
30.2119
29.6226
29.0375
31.868
33.2443
33.5806
30.9111
82.5128
61.8667
37.7453
20.4271
20.6116
23.387
21.8349
20.2052
27.4202
26.4237
25.4621
27.1682
31.2174
29.4402
28.1572
31.6422
34.6574
32.765
28.2641
97.5909
66.5556
34.8819
15.8341
11.3514
15.6035
23.1271
14.2871
20.6214
24.6026
27.2324
28.1669
30.369
29.0793
25.1652
27.1605
31.1949
30.9531
28.4916
78.5203
63.8957
41.5582
25.3367
19.192
20.5435
27.1918
18.0613
24.3293
27.2644
27.3334
27.8693
31.4056
28.9861
25.7567
28.4658
33.2489
32.2445
27.3381
49.9316
62.7568
28.2035
18.9276
12.4573
12.6581
11.9971
15.8695
20.1528
23.176
23.8741
24.781
31.198
31.1527
26.7837
23.3305
25.0098
28.7903
27.503
74.1659
62.0295
40.5351
28.6629
16.9232
16.6403
19.2881
18.2304
22.1156
23.9439
25.4112
27.6189
31.1902
29.4126
25.0179
25.4927
30.1149
31.6148
28.158
76.0839
57.2583
23.6814
19.9676
11.358
15.3658
13.776
15.591
20.0953
21.7229
22.6981
23.8864
30.9619
31.1412
26.4821
22.7263
23.9767
28.0058
26.0655
78.9623
61.8973
40.2171
28.5055
16.9352
10.6405
19.8207
18.6155
21.0681
23.4267
25.9213
29.1777
32.228
30.0733
25.3798
24.709
26.6494
29.8317
27.5468
77.0849
59.1591
31.9292
21.8005
12.7549
13.4059
15.0549
14.9358
20.5361
24.3348
24.6977
24.6979
28.1385
30.8952
30.6015
25.2137
22.6016
28.7142
27.1305
82.5861
62.3506
43.1021
29.0355
10.1052
8.57987
19.6554
17.9612
18.8588
23.6346
25.2617
25.5005
30.8486
33.332
27.3623
26.0016
25.3963
29.0352
27.579
117.811
79.546
35.5148
30.6035
30.6842
25.0317
20.9295
19.4475
21.9447
23.0689
24.8826
28.0612
31.2989
35.0883
31.0091
26.2926
20.9939
26.1903
26.8839
96.7667
76.1888
48.3544
34.443
21.6001
20.1617
13.1816
12.1226
20.5441
25.2192
26.9782
26.0038
30.7988
33.9887
29.0635
26.1986
25.7428
28.2631
27.6157
17.7472
17.7347
17.8525
18.1346
18.7455
20.0338
22.7291
28.8442
48.3923
16.504
16.6148
16.8102
17.2543
18.237
20.4035
25.1893
35.6561
57.5428
11.5939
11.6212
11.7485
12.0448
12.6884
14.057
16.9694
23.6738
94.6272
15.8989
16.0128
16.2111
16.6609
17.6579
19.8629
24.7663
35.628
87.7319
10.8634
10.8456
10.9704
11.271
11.9275
13.3296
16.2723
22.9409
76.6399
14.6475
14.7369
14.9208
15.347
16.3001
18.4232
23.1708
33.7621
85.7128
15.3712
15.3943
15.5132
15.7929
16.407
17.7269
20.5302
26.7855
80.1642
20.889
20.984
21.1548
21.5465
22.4266
24.4058
28.8787
38.912
87.1783
33.9055
33.9357
34.0351
34.2666
34.7847
35.9182
38.3789
44.0322
95.1369