/*--------------------------------*- C++ -*----------------------------------*\
| =========                 |                                                 |
| \\      /  F ield         | foam-extend: Open Source CFD                    |
|  \\    /   O peration     | Version:     3.1                                |
|   \\  /    A nd           | Web:         http://www.extend-project.de       |
|    \\/     M anipulation  |                                                 |
\*---------------------------------------------------------------------------*/
FoamFile
{
    version     2.0;
    format      ascii;
    class       volSymmTensorField;
    location    "345600";
    object      DSigma;
}
// * * * * * * * * * * * * * * * * * * * * * * * * * * * * * * * * * * * * * //

dimensions      [1 -1 -2 0 0 0 0];

internalField   nonuniform List<symmTensor> 
23248
(
(13.1601 -0.00683637 -4.6239 6.19441 -0.000684179 2.33741)
(13.1748 -0.00378992 -4.62313 6.2199 -0.00864795 2.34897)
(13.199 -0.00902 -4.61964 6.25611 -0.0302429 2.36738)
(13.2762 -0.0291571 -4.61277 6.35207 -0.085749 2.41745)
(13.5552 -0.0586929 -4.60369 6.64485 -0.21835 2.65267)
(14.03 -0.119842 -4.56659 7.31647 -0.534961 3.18091)
(15.2977 -0.336194 -4.48525 9.04404 -1.35248 4.47633)
(18.6744 -0.859184 -4.33292 13.6684 -3.412 7.71548)
(28.566 -2.8183 -2.7876 28.9217 -7.99772 14.6928)
(12.7952 -0.0027632 -4.00186 6.48349 0.013376 3.37992)
(12.8198 -0.00250571 -4.00366 6.52244 0.00701537 3.40376)
(12.8793 -0.000594018 -4.00792 6.59043 0.0168912 3.45519)
(12.9724 -0.00608911 -4.06093 6.74645 0.0489245 3.50665)
(13.3805 -0.0144306 -4.05342 7.24975 0.0814256 3.90187)
(14.1484 0.0115267 -4.06321 8.40438 0.22463 4.61846)
(16.127 0.0233679 -4.11427 11.3974 0.611213 6.46992)
(21.1579 -0.00232661 -4.28226 19.0999 1.56524 11.326)
(33.0935 -0.286456 -4.17033 37.2544 3.42864 24.2583)
(5.01696 0.0025091 -4.8499 -0.288614 0.011372 -5.80532)
(5.0009 -0.000989431 -4.84905 -0.314436 -0.0048244 -5.82389)
(5.02001 -0.00440678 -4.84705 -0.287325 -0.0276566 -5.80617)
(5.08686 -0.0111634 -4.84288 -0.194088 -0.0787972 -5.73746)
(5.27161 -0.0280953 -4.83281 0.0593294 -0.207118 -5.54292)
(5.75082 -0.0753498 -4.80381 0.725089 -0.534936 -5.02823)
(6.97637 -0.198708 -4.72188 2.45229 -1.3798 -3.74311)
(10.1103 -0.552368 -4.4777 7.15984 -3.46301 -0.792043)
(21.1822 -1.3381 -3.57571 24.6222 -7.46478 7.89299)
(9.62008 -0.00084018 -2.00754 3.84181 0.00337805 -0.126192)
(9.60711 -0.000679541 -2.00751 3.82029 0.00397804 -0.140639)
(9.63769 -0.000522383 -2.00842 3.8654 0.0120956 -0.111831)
(9.73558 -0.000432418 -2.01254 4.02155 0.0324862 -0.0169181)
(10.0152 -0.000175833 -2.01496 4.44549 0.0829364 0.242724)
(10.7306 0.00576204 -2.02693 5.56652 0.217105 0.919542)
(12.6411 0.000210504 -2.06631 8.58474 0.589057 2.75475)
(17.8337 -0.0944507 -2.16638 16.6379 1.68273 7.93472)
(31.4715 -0.366028 -2.18355 36.351 4.15953 23.02)
(4.13373 0.00153224 1.00313 -0.174508 0.00129363 -4.54696)
(4.15189 -0.00018502 1.00321 -0.142466 -0.00553129 -4.53178)
(4.17176 -0.0014189 1.00342 -0.11169 -0.0255706 -4.5122)
(4.23129 -0.00392449 1.00378 -0.0259385 -0.0721027 -4.4486)
(4.3895 -0.0104861 1.00789 0.203996 -0.191466 -4.27705)
(4.82175 -0.0285853 1.01679 0.81749 -0.502228 -3.80651)
(5.92008 -0.0823921 1.05109 2.38946 -1.29294 -2.63669)
(8.59933 -0.289298 1.20994 6.52648 -3.19685 -0.166763)
(17.8595 -1.74277 1.73184 21.5337 -6.79539 6.17893)
(8.629 0.00204909 -0.485342 3.01162 0.00932935 -1.11527)
(8.65262 -3.80797e-06 -0.486244 3.05117 0.00490707 -1.09164)
(8.6822 -0.000964214 -0.486364 3.09815 0.0109245 -1.06216)
(8.77308 -0.00212936 -0.487575 3.24248 0.029695 -0.975359)
(9.01906 -0.0067962 -0.490024 3.63424 0.0773634 -0.739764)
(9.67602 -0.0205795 -0.496943 4.68161 0.201702 -0.113304)
(11.4671 -0.0721754 -0.519005 7.50339 0.55212 1.59927)
(16.438 -0.2648 -0.591292 14.9645 1.65477 6.48364)
(29.6109 -0.758086 -0.76685 32.794 4.54493 20.4823)
(11.9525 -0.00209705 -1.85038 4.15885 0.00689474 -1.50117)
(11.9829 -0.000210668 -1.85036 4.21226 -0.00395107 -1.47627)
(12.0014 0.000537793 -1.84857 4.24005 -0.0233758 -1.45784)
(12.0567 0.00236732 -1.84492 4.31903 -0.0659585 -1.39774)
(12.2059 0.00596345 -1.8381 4.52931 -0.173663 -1.23764)
(12.6017 0.00559086 -1.81151 5.08666 -0.453191 -0.7998)
(13.603 0.013751 -1.73531 6.51793 -1.16216 0.292223)
(15.9892 0.0762898 -1.58263 10.3337 -2.88188 2.55942)
(24.2706 1.02672 -1.25799 25.462 -5.86813 8.75767)
(14.1429 -0.000405316 2.36139 6.56563 -0.00152744 2.16202)
(14.1265 -0.00036441 2.35934 6.53779 0.00271175 2.14713)
(14.1513 -0.001218 2.3581 6.57526 0.00995335 2.17082)
(14.2377 -0.00369883 2.35725 6.70738 0.0274655 2.25172)
(14.4724 -0.0107614 2.356 7.06492 0.0703523 2.47194)
(15.0891 -0.0362865 2.34678 8.01202 0.179625 3.04594)
(16.743 -0.10595 2.31587 10.5631 0.486695 4.60186)
(21.2299 -0.25941 2.20113 17.3776 1.48873 9.02171)
(32.8274 -0.576799 1.67824 33.6865 4.34796 21.7372)
(29.3192 -0.00586897 5.61829 15.9561 0.00924153 10.6253)
(29.3528 -0.000786443 5.61785 16.0126 -0.00266279 10.6545)
(29.3718 0.00230388 5.61765 16.04 -0.022238 10.675)
(29.4342 0.0101899 5.61251 16.1204 -0.0621004 10.7393)
(29.6177 0.0304854 5.6443 16.3513 -0.157132 10.9566)
(29.9959 0.0463129 5.62433 16.8466 -0.407569 11.358)
(30.8996 0.0967402 5.61283 18.0411 -1.01433 12.3228)
(32.8044 0.0118253 5.69679 20.816 -2.49267 14.1733)
(37.0287 -1.28197 3.42091 29.9407 -5.60042 16.0608)
(16.469 -0.00470783 0.817321 7.99925 -0.0051104 3.43092)
(16.4625 -0.00238568 0.81816 7.98625 0.00098619 3.42735)
(16.4895 -0.00163805 0.819069 8.02323 0.008225 3.45169)
(16.583 -0.0016893 0.82425 8.15519 0.0248724 3.53542)
(16.8279 -0.00572802 0.835567 8.50483 0.0638106 3.76055)
(17.4413 -0.0204197 0.855342 9.3946 0.157681 4.31555)
(19.0269 -0.0859648 0.892852 11.6934 0.408291 5.75781)
(23.1322 -0.376307 0.919082 17.6268 1.13582 9.64442)
(33.1591 -1.04914 0.468292 31.7573 3.35231 20.1745)
(-15.6028 -0.00922068 -1.56289 -14.8351 0.0248312 -21.5218)
(-15.6012 -0.0011256 -1.56183 -14.831 0.00143543 -21.5209)
(-15.5899 0.00416193 -1.56121 -14.8148 -0.0206487 -21.5094)
(-15.5442 0.0153172 -1.56228 -14.745 -0.0610848 -21.46)
(-15.4214 0.0365771 -1.56927 -14.5533 -0.164809 -21.3248)
(-15.0739 0.0849696 -1.57054 -14.0314 -0.434968 -20.939)
(-14.1855 0.224096 -1.55779 -12.6825 -1.09929 -19.9821)
(-11.7942 0.919865 -1.44639 -8.91719 -2.52289 -17.8902)
(-2.19195 0.317403 8.29384 8.0548 -5.50227 -2.52364)
(-2.03806 0.00567285 3.04647 -4.65958 -0.0114992 -9.69577)
(-2.03799 0.00110669 3.04311 -4.66061 -0.000864281 -9.70127)
(-2.02233 -0.000338339 3.04195 -4.63307 0.00914332 -9.68606)
(-1.95175 -0.00133977 3.04194 -4.51179 0.0275064 -9.61354)
(-1.75541 -0.00593755 3.04224 -4.17304 0.0708879 -9.41056)
(-1.21994 -0.0200643 3.03869 -3.26817 0.183057 -8.87916)
(0.276074 -0.0637052 3.03336 -0.83875 0.506103 -7.40579)
(4.47393 -0.277074 3.04297 5.50744 1.53118 -3.13824)
(15.822 -0.921716 2.79809 20.5794 4.15765 9.33455)
(-0.6506 -0.00964926 1.15732 -4.20937 0.027631 -10.0024)
(-0.683182 -0.000102206 1.15628 -4.26475 0.00107096 -10.0345)
(-0.67069 0.00666415 1.15585 -4.24884 -0.0228299 -10.0203)
(-0.617552 0.0196213 1.15526 -4.17145 -0.0676143 -9.96431)
(-0.475944 0.0462773 1.15761 -3.96321 -0.176786 -9.80202)
(-0.285941 0.116187 1.14534 -3.52064 -0.454573 -9.49914)
(0.670315 0.334686 1.14269 -2.12321 -1.14191 -8.49165)
(3.4196 0.893623 1.16906 1.80734 -2.72789 -6.10845)
(13.0973 2.62974 1.58691 16.763 -5.26242 0.902837)
(2.92854 0.00426116 4.25309 -1.33054 -0.0153383 -6.40392)
(2.89503 0.000688293 4.25565 -1.38027 -0.0018911 -6.43455)
(2.91563 -0.00175497 4.25612 -1.3471 0.00995028 -6.41482)
(2.99901 -0.00659129 4.2563 -1.21528 0.0299894 -6.33402)
(3.2271 -0.0202641 4.25604 -0.857857 0.0762513 -6.11406)
(3.8216 -0.0512232 4.25301 0.0764431 0.192269 -5.54615)
(5.40535 -0.116394 4.26175 2.546 0.515191 -4.00989)
(9.67892 -0.271694 4.27839 8.99142 1.48947 0.29611)
(20.6429 -0.577675 4.01101 23.9868 3.96825 12.4511)
(9.36579 -0.00765543 5.45612 2.6743 0.0230797 -2.80408)
(9.33165 0.000915727 5.4527 2.6199 -0.00173215 -2.83001)
(9.34218 0.00744883 5.44754 2.6339 -0.0233293 -2.81884)
(9.4006 0.023869 5.44138 2.71031 -0.0639117 -2.76223)
(9.60469 0.130988 5.40401 2.93943 -0.155971 -2.59149)
(9.71133 0.168784 5.74539 3.34734 -0.410435 -2.19385)
(10.8006 0.448022 5.58183 4.64968 -1.00025 -1.24036)
(11.9867 1.00463 5.97924 7.36208 -2.41403 0.361689)
(16.0717 2.10122 6.77688 17.5769 -5.05402 4.55051)
(7.69172 0.00745588 1.66191 0.607509 -0.00907306 -6.11303)
(7.74513 0.00222652 1.66262 0.695715 -0.000144237 -6.06974)
(7.7738 -0.00213356 1.66429 0.74123 0.00908271 -6.04562)
(7.85778 -0.0069006 1.66835 0.872393 0.0262598 -5.96645)
(8.06974 -0.0189092 1.68592 1.2173 0.0651443 -5.7575)
(8.62065 -0.0515708 1.72126 2.09711 0.174281 -5.22575)
(10.034 -0.138977 1.78974 4.35398 0.438062 -3.81259)
(13.5279 -0.469304 1.99251 10.0866 1.19174 -0.0435393)
(21.4955 -1.28882 2.63942 23.1988 3.11001 10.409)
(5.91408 -0.00857113 3.76809 -0.626253 0.0135258 -7.58284)
(5.90302 0.00313328 3.76598 -0.657323 -0.00545509 -7.59338)
(5.91613 0.014874 3.76275 -0.647374 -0.0186622 -7.6034)
(6.00971 0.0264061 3.76746 -0.524014 -0.0673633 -7.46183)
(6.16454 0.065007 3.76373 -0.291338 -0.180029 -7.27381)
(6.52359 0.171709 3.74528 0.27115 -0.460874 -6.86644)
(7.7009 0.49289 3.75511 1.80344 -1.12883 -5.68013)
(10.7892 1.11802 3.92026 5.69228 -2.73591 -2.9643)
(15.4646 2.77628 3.91401 16.4856 -5.40483 1.21885)
(0.710202 0.00720722 6.14007 -2.18346 -0.0155939 -6.19388)
(0.723078 0.00236524 6.14221 -2.16055 0.000464726 -6.18137)
(0.757827 -0.0017952 6.14516 -2.10474 0.0131069 -6.14153)
(0.850641 -0.00935977 6.14562 -1.96328 0.0291458 -6.04816)
(1.0735 -0.0271598 6.14523 -1.60011 0.0684432 -5.83806)
(1.65601 -0.065154 6.14137 -0.636695 0.183378 -5.29665)
(3.28304 -0.141925 6.16563 1.91422 0.514989 -3.72255)
(7.76506 -0.388781 6.25668 8.58502 1.3085 0.75901)
(19.4104 -0.846434 5.94635 24.4236 3.11739 12.6589)
(6.89254 -0.00411225 8.19663 1.7703 0.0153245 -2.67574)
(6.80971 0.0069882 8.18651 1.6497 -0.00707942 -2.74044)
(6.90114 0.0163166 8.19156 1.70576 -0.0255099 -2.69589)
(6.97315 0.0293614 8.18819 1.79149 -0.0671469 -2.62925)
(7.09126 0.0575918 8.19303 1.96503 -0.167559 -2.46967)
(7.18685 0.0219175 8.20855 2.34716 -0.498714 -2.00507)
(5.09722 0.663399 7.34435 1.85183 -0.945844 -3.45131)
(7.33484 1.25552 8.54543 6.31288 -2.65084 1.7815)
(18.2565 2.33772 5.50009 17.8617 -5.78635 1.82627)
(1.83296 0.00418159 7.63756 -1.13111 -0.00089287 -4.61006)
(1.87595 0.00240958 7.64237 -1.05719 0.00308364 -4.56776)
(1.91222 -0.000210868 7.64784 -0.995788 0.0125809 -4.52968)
(2.00273 -0.0080836 7.65282 -0.858634 0.0310058 -4.44287)
(2.21477 -0.0376863 7.65246 -0.531115 0.0582476 -4.25056)
(2.71044 -0.108334 7.60856 0.322205 0.0991322 -3.88873)
(4.01783 -0.215786 7.53318 2.62696 0.4393 -2.9537)
(8.23692 -0.526666 7.556 9.04408 1.36948 1.42911)
(19.4095 -1.20371 6.91663 24.1472 3.11865 12.5558)
(1.46463 -0.00140111 4.34572 -3.37355 -1.63728e-05 -9.9943)
(1.46324 0.00688578 4.34843 -3.40588 -0.0135573 -9.99971)
(1.43501 0.00925751 4.28824 -3.45423 -0.0465481 -10.1673)
(1.52435 0.0462135 4.28265 -3.32812 -0.0863736 -10.0561)
(1.72523 0.101131 4.29421 -3.01619 -0.222484 -9.82866)
(2.55901 0.100852 4.53331 -1.85276 -0.660109 -8.71263)
(8.55618 0.359871 6.42789 3.98812 -0.591124 -3.50394)
(7.73711 1.47949 5.29183 4.76247 -2.52147 -4.22774)
(14.5477 3.06149 5.57641 15.6948 -5.53876 -0.570048)
(2.09822 0.000271282 8.23976 -1.42796 0.00554279 -5.57179)
(2.1634 0.00236898 8.24192 -1.31969 0.00580417 -5.51188)
(2.20089 0.00139951 8.24976 -1.24024 0.0159106 -5.47774)
(2.32462 -0.0111232 8.2533 -1.04011 0.047236 -5.35926)
(2.66854 -0.0526493 8.25658 -0.546438 0.119852 -5.031)
(3.55356 -0.204331 8.23662 0.533062 0.246613 -4.24784)
(4.05487 -0.573907 7.49039 1.82366 0.260562 -4.38841)
(10.4883 -0.365982 8.13737 10.4873 1.453 2.23693)
(21.6631 -1.19261 7.35519 25.6396 3.26922 13.4058)
(15.4717 0.00283661 4.17829 1.61095 -0.00404178 -11.5502)
(15.4497 0.00887913 4.17619 1.57025 -0.0165354 -11.565)
(15.4829 0.0204641 4.17574 1.61917 -0.0404918 -11.5208)
(15.5708 0.0504544 4.17556 1.74918 -0.0993009 -11.4111)
(15.7917 0.134737 4.17832 2.07684 -0.230433 -11.1685)
(16.8289 0.748734 3.99343 2.97752 -0.210228 -10.862)
(20.6535 0.761736 5.8959 7.98407 -1.33488 -2.45539)
(18.9879 0.957184 5.30562 8.96768 -3.15492 -3.54103)
(29.0332 5.78609 4.97478 23.5403 -4.88628 2.40438)
(7.98136 -0.00654825 10.3788 2.50716 0.0128044 -1.60721)
(8.06319 -0.00329763 10.3812 2.64035 0.00917934 -1.52594)
(8.12086 -0.00624283 10.3809 2.73266 0.0189374 -1.47247)
(8.25996 -0.0158139 10.3816 2.94724 0.0469584 -1.34497)
(8.60821 -0.0373176 10.3854 3.47077 0.12766 -1.0141)
(9.4398 -0.110513 10.3961 4.69378 0.312365 -0.107517)
(11.4455 -0.196228 10.3762 7.60046 0.640914 1.99872)
(16.073 -0.371248 10.3033 14.5039 1.34874 6.06949)
(29.0834 -1.06118 9.14289 30.9223 2.91111 17.9221)
(19.2262 -0.00493446 14.7765 11.0419 -0.00933773 8.41342)
(19.2688 0.00744658 14.7761 11.0975 -0.0163442 8.44808)
(19.3031 0.0185716 14.7757 11.1465 -0.0406873 8.48251)
(19.3895 0.0455168 14.7694 11.259 -0.0968314 8.57003)
(19.5763 0.11023 14.7539 11.5065 -0.225573 8.75104)
(19.9613 0.300093 14.6139 12.0304 -0.52304 9.03231)
(20.6514 0.748945 14.4526 13.2656 -1.28975 9.72545)
(23.0961 1.53447 14.7238 17.2527 -3.17191 12.7157)
(32.6733 1.20634 15.4247 34.1749 -7.68269 22.049)
(21.196 -0.00747713 11.2058 10.0353 0.010997 3.8427)
(21.1895 -0.00472916 11.2144 10.0455 0.0112924 3.82764)
(21.2431 -0.00650533 11.2165 10.1276 0.0201974 3.88089)
(21.3777 -0.014521 11.2216 10.3394 0.0483037 4.01169)
(21.699 -0.032363 11.2328 10.854 0.115886 4.32606)
(22.4729 -0.0835084 11.2585 12.1158 0.276262 5.0919)
(24.42 -0.255712 11.3089 15.2536 0.667717 7.01488)
(29.4328 -0.773722 11.2404 23.0013 1.55203 12.0005)
(42.8375 -2.26022 9.83239 41.3052 3.06879 25.5666)
(11.3462 -0.00043554 14.4037 -6.45414 -0.00499116 -27.388)
(11.5673 0.00819554 14.4225 -6.24262 -0.0163116 -27.1951)
(11.6096 0.0255308 14.4261 -6.17469 -0.0483988 -27.1452)
(11.7156 0.0636354 14.4254 -6.0223 -0.119016 -27.0094)
(11.9766 0.155174 14.4203 -5.6538 -0.288143 -26.6809)
(12.5981 0.374928 14.407 -4.76644 -0.698329 -25.8946)
(14.0574 0.900922 14.4093 -2.59414 -1.67721 -24.0567)
(17.6464 2.02069 14.6447 3.45948 -3.45653 -19.737)
(44.8522 3.51361 12.977 40.2394 -5.94921 16.8298)
(23.3028 -0.0102376 14.569 11.8546 0.0090861 6.19664)
(23.3356 -0.00526359 14.5664 11.8866 0.0152274 6.24049)
(23.408 -0.00884705 14.5674 11.9899 0.0280087 6.31194)
(23.586 -0.0208803 14.5706 12.2636 0.0661075 6.4777)
(24.0184 -0.051872 14.5771 12.9318 0.156466 6.87922)
(25.0722 -0.141024 14.5854 14.559 0.368875 7.85422)
(27.6711 -0.430522 14.5588 18.5122 0.897091 10.2502)
(34.1964 -1.28987 14.182 27.7323 2.15517 16.2959)
(53.8362 -3.49751 11.2324 49.5557 4.01443 35.7633)
(-0.241022 -0.0173896 15.929 -6.49139 0.0214275 -16.1228)
(-0.305892 0.00772852 15.874 -6.57888 -0.0104325 -16.2265)
(-0.275657 0.0320521 15.8718 -6.53835 -0.05296 -16.2054)
(-0.136946 0.0822045 15.8639 -6.36227 -0.1352 -16.0699)
(0.203373 0.200432 15.8448 -5.92533 -0.327243 -15.7284)
(0.991047 0.477284 15.8087 -4.88956 -0.784782 -14.9204)
(2.61032 1.10652 15.8249 -2.48131 -1.86744 -13.2)
(5.6891 2.21628 16.4856 3.95978 -4.35499 -9.77674)
(26.5202 0.210196 18.6421 37.8789 -7.16172 9.43248)
(36.761 0.0150276 12.089 21.7426 -0.0115503 17.4309)
(36.7539 0.000515818 12.0906 21.7393 0.0101037 17.4287)
(36.825 -0.0124491 12.0925 21.8563 0.0306771 17.5027)
(37.0216 -0.0338648 12.0978 22.176 0.0728198 17.698)
(37.5124 -0.0848094 12.1096 22.9704 0.172095 18.1809)
(38.7415 -0.229363 12.1306 24.9304 0.416239 19.3857)
(41.8753 -0.715807 12.1312 29.7364 1.07964 22.4866)
(49.7642 -2.35438 11.8764 40.9313 2.96174 30.5934)
(68.1055 -6.10762 10.588 64.3323 6.55341 50.6152)
(27.0306 0.0619937 20.9184 19.672 0.0685789 22.0022)
(26.7179 0.0385317 20.8884 19.7026 0.00284161 22.4639)
(26.7957 0.0525677 20.8853 19.7842 -0.051915 22.5124)
(26.9689 0.124826 20.8738 20.003 -0.127832 22.6905)
(27.3643 0.294747 20.8476 20.5082 -0.301591 23.1047)
(28.1997 0.683103 20.8039 21.6233 -0.701168 23.9895)
(29.5406 1.54745 20.8739 23.9838 -1.604 25.5124)
(30.9238 2.95348 21.9319 30.4144 -3.44683 27.6135)
(55.0431 1.57317 22.4376 69.0657 -1.04206 48.7066)
(55.1985 0.00137884 12.6383 42.8637 0.00449488 51.8542)
(55.18 -0.00204343 12.638 42.8917 0.0174014 51.8825)
(55.2702 -0.0202578 12.6407 43.0483 0.0314649 51.9883)
(55.51 -0.0524351 12.6492 43.434 0.068916 52.2353)
(56.0882 -0.127503 12.6685 44.3609 0.158954 52.8226)
(57.5208 -0.334013 12.6979 46.6047 0.390435 54.2484)
(61.1436 -1.08864 12.6675 52.0007 1.06182 57.7472)
(69.8513 -3.60152 12.2485 64.0673 3.06235 66.1765)
(88.9323 -8.92257 10.3633 87.9593 6.57575 84.6729)
(37.0116 0.00215347 7.5134 42.4667 0.00591036 68.8707)
(36.9511 0.0299952 7.50904 42.3492 -0.0169287 68.8032)
(37.0257 0.077779 7.50648 42.4379 -0.0481996 68.8707)
(37.2051 0.18293 7.4988 42.6719 -0.113065 69.044)
(37.5964 0.414554 7.48186 43.1904 -0.257076 69.4301)
(38.2977 0.913243 7.45996 44.2495 -0.577408 70.1851)
(38.9862 1.94392 7.54235 46.3323 -1.33305 71.348)
(37.84 3.41426 8.39056 51.9056 -3.58983 72.8706)
(52.764 -0.951365 12.493 84.7862 -8.22296 85.0873)
(49.875 -0.00857156 7.94841 46.781 0.00154009 66.893)
(49.873 -0.0120231 7.94967 46.7967 0.00774418 66.8988)
(49.9754 -0.0308873 7.95146 46.9721 0.0190656 67.0099)
(50.2419 -0.0740639 7.95685 47.4131 0.0416421 67.2919)
(50.8774 -0.182756 7.96736 48.4554 0.0798552 67.9645)
(52.3721 -0.482826 7.93277 50.9065 0.192944 69.638)
(56.1422 -1.45931 7.9082 56.528 0.57718 73.4136)
(64.991 -4.57918 7.67291 68.3608 1.70511 81.4294)
(84.1248 -10.7766 7.18358 89.7035 4.42372 95.346)
(8.57779 -0.0057651 5.66042 15.8633 -0.00249104 30.8197)
(8.55588 0.0411589 5.65363 15.7988 -0.00488743 30.7875)
(8.65885 0.111979 5.64127 15.923 -0.0116809 30.8811)
(8.90983 0.264669 5.61376 16.2459 -0.0288558 31.1168)
(9.46186 0.606201 5.55692 16.9751 -0.0638933 31.6432)
(10.5498 1.3684 5.46223 18.566 -0.130288 32.7419)
(12.2394 3.04153 5.42996 22.1057 -0.219912 34.864)
(14.3703 6.16975 6.0303 32.1007 0.0117478 39.7816)
(41.3658 5.17285 7.64652 81.9656 3.03678 72.6344)
(31.4949 0.00202738 -5.57583 34.1488 0.000726362 53.8019)
(31.5628 -0.0137541 -5.57503 34.2707 0.00213005 53.8796)
(31.6881 -0.0413883 -5.57015 34.4861 0.0065458 54.0129)
(31.99 -0.0991722 -5.55984 34.997 0.0154245 54.3283)
(32.7226 -0.238654 -5.53684 36.2195 0.039855 55.0932)
(34.5198 -0.621022 -5.48853 39.1335 0.124114 56.9468)
(38.9837 -1.77461 -5.35998 45.9294 0.430655 61.4033)
(49.8854 -4.91216 -4.85144 60.5482 1.47234 71.5864)
(78.9842 -10.1959 -2.2775 91.0193 4.02639 95.2065)
(36.3151 -0.0180991 -6.83366 38.1516 0.00451111 58.84)
(36.296 0.0301003 -6.83881 38.0948 -0.00169565 58.8077)
(36.373 0.0908225 -6.83856 38.183 -0.00245416 58.8732)
(36.5662 0.214815 -6.83479 38.4255 -0.00449181 59.0479)
(36.9826 0.487637 -6.82764 38.9639 -0.00847293 59.4286)
(37.7743 1.08883 -6.80991 40.0981 -0.0214332 60.1965)
(38.914 2.41398 -6.80319 42.4712 -0.0861487 61.5886)
(39.6958 5.25923 -6.89402 48.593 -0.555701 64.2593)
(46.9467 8.07118 -4.22931 77.4411 -2.7036 77.4356)
(31.8114 0.00653715 0.21132 33.9332 -0.00079886 53.0307)
(31.9098 -0.00958899 0.210448 34.1073 -0.00270343 53.1374)
(32.0262 -0.0338405 0.209433 34.3055 -0.00530975 53.2626)
(32.3079 -0.0821921 0.206465 34.7721 -0.0102812 53.5616)
(32.9796 -0.195119 0.199061 35.873 -0.0201468 54.2696)
(34.5993 -0.497404 0.180784 38.4626 -0.0393896 55.9476)
(38.5604 -1.4106 0.136828 44.5097 -0.0950544 59.9129)
(48.1328 -4.07252 -0.135582 58.0157 -0.218835 68.9332)
(68.9604 -9.39673 -1.28626 84.9653 0.00884802 87.1274)
(10.4006 -0.00708275 -3.93211 3.9248 -0.0152481 -0.478489)
(10.4472 -0.00273811 -3.93119 4.00968 -0.0107809 -0.432051)
(10.4562 -0.0100313 -3.92466 4.04678 -0.0296979 -0.423218)
(10.5377 -0.0559218 -3.90857 4.14519 -0.0826851 -0.409249)
(11.1599 -0.103506 -3.92676 4.51946 -0.210198 -0.174188)
(11.396 -0.104414 -3.84149 5.10433 -0.5521 0.288543)
(12.6062 -0.436274 -3.7442 6.81967 -1.37013 1.59123)
(16.0849 -1.17452 -3.69286 11.2806 -3.46511 4.58077)
(24.532 -3.02584 -4.71314 25.7843 -8.43395 12.2539)
(-6.83722 -0.00136204 -2.78195 -7.92595 -0.0148321 -12.9186)
(-6.82564 0.0294015 -2.78853 -7.88331 -0.0271908 -12.8383)
(-7.18776 0.0505501 -2.72916 -7.92618 -0.0569711 -12.7809)
(-7.19977 -0.0793983 -2.69237 -7.73956 -0.0609341 -12.7245)
(-0.861677 -0.115815 -2.92454 -2.90339 -0.105341 -7.54728)
(-6.00191 -0.152433 -2.71626 -6.36254 -0.772225 -11.8856)
(-3.89157 -0.672163 -2.58773 -3.40247 -1.73099 -10.1087)
(10.2615 -1.20442 -2.85922 13.9826 -1.82086 3.51157)
(45.27 -4.30623 -2.12843 63.849 -4.65696 36.442)
(12.3627 -0.00262792 -1.80161 5.38584 0.0313981 0.853177)
(12.7837 -0.0187305 -1.8569 5.71329 0.0420624 1.37325)
(14.0151 -0.0244084 0.130701 6.50745 0.0148337 2.2351)
(13.8514 -0.0513678 0.00769069 6.39507 -0.134563 1.91441)
(14.9181 -0.212213 0.225871 7.27787 -0.324393 2.5534)
(14.7266 -0.131345 -1.82708 8.67614 -0.36014 3.14595)
(17.0716 -0.484541 -1.85284 12.3582 -0.997119 5.3775)
(22.4018 -1.70527 0.607099 17.8376 -4.51005 10.1344)
(35.286 -6.90842 1.13896 35.4293 -10.4943 20.0835)
(10.8727 0.0141478 -2.89918 3.61207 -0.0220082 -1.59929)
(10.8686 0.00521566 -2.88428 3.69642 0.000145835 -1.74335)
(11.2358 -0.123476 -2.96191 4.11099 0.0772509 -0.993994)
(11.2082 -0.0542706 -3.04731 4.20162 -0.110839 -0.914972)
(11.5004 -0.0596549 -3.04458 4.59978 -0.346435 -0.576913)
(11.9628 -0.22775 -2.73633 5.19962 -0.912501 -0.722336)
(13.6891 -0.742671 -2.69191 7.62176 -1.9248 1.08916)
(18.594 -2.11616 -2.51439 14.3428 -4.60198 6.26589)
(32.4508 -5.87711 -1.59122 34.43 -11.27 17.5048)
(7.05825 -0.00153182 -5.64669 2.85565 -0.00879767 0.0728695)
(7.0729 0.0665728 -5.67167 2.90323 -0.0594784 0.155228)
(7.1912 0.0359066 -5.57757 2.94513 -0.079091 0.06691)
(7.44496 -0.0451129 -5.36084 3.01695 -0.131379 -0.187933)
(7.75676 -0.21407 -5.32389 3.39883 -0.274834 0.0660691)
(8.44753 -0.338234 -5.39639 4.4544 -0.799153 1.02205)
(10.3404 -0.877226 -5.31363 7.05068 -1.96807 2.93073)
(15.0618 -2.08617 -5.15268 13.9333 -4.881 7.52407)
(30.4561 -5.17426 -3.44227 35.8193 -11.2592 20.5855)
(11.2225 0.00385741 1.28496 2.01356 -0.00253424 -6.16135)
(11.2457 0.00317608 1.27952 2.07598 -0.0299058 -6.11021)
(11.1835 -0.0193687 1.28254 2.09707 -0.0667089 -6.0874)
(11.3508 -0.0793414 1.27265 2.29754 -0.145318 -5.92053)
(11.7991 -0.183051 1.26565 2.821 -0.355459 -5.50576)
(12.6196 -0.428889 1.28422 3.97148 -0.883293 -4.61936)
(14.5677 -0.992582 1.27243 6.76749 -2.18045 -2.46892)
(19.4849 -2.57096 1.35729 13.9048 -5.30657 2.79364)
(25.018 -6.38662 -0.0296329 32.2227 -12.0251 15.267)
(-7.37245 0.00259492 -0.334789 -8.98302 0.00234577 -15.1608)
(-7.32561 -0.00672692 -0.344767 -8.93888 -0.0295319 -15.1054)
(-7.13696 -0.0301113 -0.382679 -8.76986 -0.070365 -14.9245)
(-6.99764 -0.085534 -0.363227 -8.57058 -0.161965 -14.7843)
(-6.748 -0.199892 -0.295294 -8.14752 -0.401489 -14.5284)
(-5.87149 -0.476831 -0.227286 -6.91784 -0.991205 -13.6456)
(-3.76885 -1.13935 -0.115115 -3.84916 -2.41881 -11.5046)
(1.60092 -2.39505 -0.101819 4.34643 -5.88968 -6.16268)
(28.5773 -6.23065 0.668198 34.4989 -12.4633 12.2285)
(10.1003 0.000494884 -9.47189 6.7813 0.00234095 6.8307)
(10.1326 -0.00988282 -9.47135 6.8263 -0.0248185 6.86679)
(10.189 -0.0215669 -9.47208 6.90377 -0.0683447 6.93075)
(10.3731 -0.0744611 -9.43594 7.11842 -0.165666 7.08726)
(10.7113 -0.190099 -9.43023 7.60342 -0.407302 7.47206)
(11.6377 -0.44159 -9.37131 8.81622 -0.994447 8.41663)
(13.7602 -1.03628 -9.28176 11.7244 -2.38756 10.5761)
(18.8381 -2.36002 -9.34135 19.2887 -5.63578 15.4871)
(35.3479 -4.92989 -9.77143 42.7467 -13.254 30.6838)
(-5.77459 0.000764883 2.95895 -10.7116 -0.000796643 -21.0673)
(-5.76102 -0.010777 2.96044 -10.6942 -0.0254936 -21.0514)
(-5.70827 -0.0274841 2.95882 -10.6135 -0.072523 -20.9829)
(-5.58159 -0.0626172 2.96181 -10.3939 -0.188317 -20.8041)
(-5.30842 -0.193269 2.98938 -9.88795 -0.448162 -20.4289)
(-4.46734 -0.464547 2.98376 -8.60651 -1.08474 -19.4322)
(-2.51737 -1.02453 3.07369 -5.574 -2.59722 -17.3091)
(2.40253 -3.01267 2.87255 2.37165 -5.75796 -12.1389)
(15.5319 -7.07122 -3.70697 30.3965 -12.2054 9.38202)
(0.293804 0.000725575 -12.1195 -0.687493 0.00177629 -2.13935)
(0.2721 -0.0121061 -12.1194 -0.719909 -0.0263326 -2.15628)
(0.328526 -0.0288458 -12.1165 -0.644924 -0.0798391 -2.094)
(0.395893 0.166231 -12.2096 -0.410812 -0.329419 -1.79346)
(1.40109 -0.176329 -11.5788 -0.113559 -0.483459 -2.65883)
(2.04563 -0.571786 -11.7889 1.23676 -1.06736 -1.16092)
(4.38228 -1.05626 -11.7265 4.33711 -2.65782 1.10441)
(9.88428 -2.36543 -11.5094 11.9693 -6.0738 5.61609)
(31.08 -3.87033 -8.14897 37.7072 -12.974 18.4237)
(21.2828 0.00432371 0.258384 4.2356 -8.81288e-05 -10.819)
(21.278 -0.0133333 0.262296 4.2177 -0.029097 -10.8208)
(21.3405 -0.0331715 0.258352 4.31227 -0.0830886 -10.7367)
(21.52 -0.0909331 0.235845 4.55246 -0.196792 -10.511)
(21.674 -0.240834 0.114336 5.03487 -0.445142 -9.98043)
(22.7993 -0.423308 0.19988 6.38657 -1.08549 -8.93776)
(24.6866 -1.14455 0.0874571 9.30945 -2.48879 -6.57381)
(28.7019 -3.08135 -0.335074 16.3773 -5.5246 -1.90076)
(37.3736 -9.30346 -4.5912 43.1373 -10.6183 15.9515)
(19.8702 -0.000241898 -7.09958 5.88284 -0.00207369 -5.23605)
(19.8771 -0.015138 -7.09814 5.8947 -0.025944 -5.22131)
(19.9363 -0.0432099 -7.09758 5.98175 -0.0712286 -5.15017)
(20.0939 -0.10617 -7.09375 6.20538 -0.17218 -4.96704)
(20.4691 -0.251646 -7.07907 6.7412 -0.413234 -4.52787)
(21.32 -0.591141 -7.05666 7.98254 -0.983039 -3.54253)
(23.2657 -1.4034 -7.06311 10.9571 -2.27551 -1.32133)
(27.5696 -3.43388 -7.44848 18.7376 -5.00304 3.18788)
(40.9321 -8.29521 -10.8674 48.9096 -8.87752 23.178)
(18.7429 0.00649841 -9.98794 14.5947 -0.00216878 17.6272)
(18.6624 -0.0187123 -9.96713 14.5282 -0.0234874 17.5508)
(18.7257 -0.0572113 -9.96319 14.6156 -0.0636982 17.618)
(18.9022 -0.139292 -9.95641 14.8562 -0.15419 17.7977)
(19.3395 -0.328718 -9.94324 15.4341 -0.360701 18.2399)
(20.3368 -0.74943 -9.92699 16.7967 -0.854666 19.318)
(22.091 -1.70733 -9.89863 19.6743 -1.95269 21.1927)
(25.8933 -3.7159 -10.4433 27.4036 -4.31882 25.2301)
(41.0061 -6.11448 -12.135 57.3129 -7.45613 41.0085)
(31.8244 -0.0130539 -10.7988 30.0284 -0.00204033 43.2061)
(31.8891 -0.0287932 -10.8116 30.1123 -0.020392 43.3132)
(31.9672 -0.0710716 -10.8101 30.2196 -0.0515225 43.3925)
(32.1468 -0.166321 -10.8025 30.4578 -0.120751 43.5697)
(32.5547 -0.381539 -10.7824 30.9982 -0.279554 43.9611)
(33.4177 -0.862902 -10.743 32.1939 -0.640554 44.8174)
(35.2345 -1.91338 -10.7645 34.9774 -1.47018 46.8222)
(38.4952 -4.13485 -11.1266 41.7557 -3.25352 50.416)
(50.1878 -6.83892 -12.2896 67.2408 -6.58587 63.2568)
(28.4181 -0.00861539 -5.04104 30.982 -0.00467485 49.0162)
(28.4594 -0.0335203 -5.0419 31.0458 -0.0164269 49.0589)
(28.5418 -0.0862774 -5.04079 31.1561 -0.0418429 49.137)
(28.7377 -0.199213 -5.03564 31.4096 -0.0972486 49.3206)
(29.1728 -0.448009 -5.02251 31.9787 -0.221587 49.7333)
(30.0949 -0.998885 -4.99667 33.2342 -0.5022 50.6314)
(31.9404 -2.20662 -4.97147 36.0366 -1.14189 52.546)
(35.6063 -4.71444 -5.08664 43.0446 -2.62227 56.8759)
(47.8323 -8.65021 -5.96545 67.5223 -6.1114 71.4616)
(21.9644 -0.00836544 -0.219513 24.7459 -0.00245537 39.796)
(21.9862 -0.0419961 -0.219075 24.7705 -0.0143569 39.8152)
(22.0809 -0.106064 -0.220376 24.8926 -0.0360526 39.9001)
(22.3069 -0.242069 -0.222552 25.1816 -0.0828234 40.1036)
(22.8067 -0.538967 -0.224861 25.8253 -0.187332 40.5583)
(23.8687 -1.18741 -0.226622 27.236 -0.420891 41.5482)
(26.0229 -2.58298 -0.242031 30.365 -0.951008 43.6783)
(30.5303 -5.42447 -0.340948 38.1452 -2.24121 48.6829)
(48.0129 -9.11954 -1.36421 67.8205 -6.24233 67.2173)
(12.9941 -0.00537852 -4.07225 13.7599 -0.00176979 21.3067)
(13.0322 -0.0480447 -4.07026 13.809 -0.0117814 21.3422)
(13.1354 -0.1223 -4.06767 13.9457 -0.0292029 21.4375)
(13.378 -0.276653 -4.06385 14.2666 -0.0657584 21.6654)
(13.9198 -0.610413 -4.05501 14.9843 -0.150352 22.185)
(15.0341 -1.33371 -4.0248 16.5151 -0.333789 23.2474)
(17.3152 -2.88152 -3.98897 19.877 -0.72288 25.5225)
(22.0567 -6.03263 -4.04645 27.8352 -1.48208 30.6726)
(36.0655 -11.1862 -4.07214 52.5002 -2.73439 47.2367)
(28.4188 0.000292373 -2.62143 29.5054 -0.00312189 45.2147)
(28.4507 -0.0491572 -2.62155 29.5375 -0.00716871 45.2409)
(28.5554 -0.126845 -2.61957 29.6689 -0.0177003 45.3377)
(28.7954 -0.2848 -2.6169 29.9763 -0.0397694 45.5575)
(29.3066 -0.62133 -2.60946 30.6404 -0.0891415 46.0219)
(30.3981 -1.34234 -2.59134 32.0915 -0.195361 47.0626)
(32.5682 -2.87534 -2.57341 35.234 -0.416379 49.2201)
(37.0078 -6.02653 -2.63591 42.8811 -0.768032 54.0223)
(52.6069 -10.8822 -2.16568 70.5152 -1.37735 70.7361)
(14.5467 0.00368331 4.09698 16.918 -0.0005961 27.5209)
(14.5493 -0.0534398 4.09626 16.8974 -0.00206346 27.5135)
(14.6574 -0.138314 4.09221 17.0314 -0.00427199 27.6098)
(14.9099 -0.3089 4.08287 17.3587 -0.00964365 27.8397)
(15.4559 -0.670669 4.06351 18.0737 -0.0217635 28.3403)
(16.5923 -1.4419 4.02666 19.6079 -0.0500656 29.401)
(18.8589 -3.07214 3.96155 22.9535 -0.122749 31.6285)
(23.5396 -6.34783 3.87213 31.1019 -0.379727 36.7119)
(39.9202 -11.4278 3.4263 58.4811 -1.82514 54.1614)
(9.35459 -0.0052254 -2.24718 2.89794 0.0186095 -2.11101)
(9.37907 -0.00261231 -2.24585 2.94265 0.00851379 -2.08368)
(9.42708 -0.01183 -2.23346 3.02285 0.0319545 -2.04998)
(9.57796 -0.03246 -2.20364 3.20481 0.0616973 -2.00396)
(9.97084 -0.0183283 -2.26053 3.7113 0.103856 -1.57372)
(10.7535 0.011522 -2.26402 4.94176 0.195904 -0.877544)
(12.8613 -0.0211686 -2.32451 8.18443 0.569884 1.12694)
(18.4463 0.048472 -2.50428 16.6164 1.36283 6.48639)
(31.9985 0.0423472 -3.67076 36.9019 2.73158 21.8396)
(-2.18826 0.00647728 -3.4817 -4.73684 0.00605611 -9.34963)
(-2.03208 0.00501848 -3.47302 -4.49687 -0.013803 -9.23156)
(-1.90347 0.000424885 -3.44485 -4.36014 -0.0058747 -9.24595)
(-1.71895 -0.000536258 -3.4413 -4.0734 0.0922028 -9.07322)
(-0.930995 -0.00580347 -3.23748 -3.24874 0.21826 -8.09207)
(-0.559366 -0.0117376 -3.48119 -2.01649 0.257745 -7.75247)