/*--------------------------------*- C++ -*----------------------------------*\
| =========                 |                                                 |
| \\      /  F ield         | foam-extend: Open Source CFD                    |
|  \\    /   O peration     | Version:     3.1                                |
|   \\  /    A nd           | Web:         http://www.extend-project.de       |
|    \\/     M anipulation  |                                                 |
\*---------------------------------------------------------------------------*/
FoamFile
{
    version     2.0;
    format      ascii;
    class       volScalarField;
    location    "345600";
    object      DSigmaSum;
}
// * * * * * * * * * * * * * * * * * * * * * * * * * * * * * * * * * * * * * //

dimensions      [1 -1 -2 0 0 0 0];

internalField   nonuniform List<scalar> 
23248
(
26.8872
26.9215
26.9721
27.1279
27.6856
28.7371
31.6505
40.2614
69.0144
25.9272
25.9857
26.1132
26.3883
27.2465
29.0116
33.7019
46.3488
77.8973
11.8684
11.8287
11.87
12.0175
12.4266
13.5102
16.4235
24.8577
56.8944
18.0639
18.0332
18.1034
18.3356
18.9834
20.6825
25.3647
38.7677
74.8125
7.32411
7.37032
7.41767
7.55474
7.92533
8.95435
11.7708
19.886
49.0762
15.5301
15.5868
15.6561
15.8702
16.4523
18.0254
22.4143
35.0589
68.9686
21.8712
21.9458
21.9875
22.1101
22.443
23.3348
25.6982
32.2487
58.2748
26.5121
26.4719
26.5275
26.7243
27.2604
28.6793
32.5591
43.5101
72.9557
56.5782
56.6554
56.6972
56.8261
57.2461
58.0514
60.0568
64.7785
77.1573
30.1451
30.1289
30.1883
30.3965
30.9444
32.3299
35.9573
45.6357
70.5126
-27.748
-27.7424
-27.7143
-27.5931
-27.257
-26.3209
-23.7749
-16.201
22.3755
-2.36849
-2.37243
-2.33268
-2.1504
-1.63999
-0.252774
3.63612
14.6578
43.6617
-1.49035
-1.57442
-1.54718
-1.42166
-1.08373
-0.495506
1.991
9.74874
38.3476
7.73927
7.66381
7.71441
7.91565
8.46458
9.90492
13.8181
24.6381
52.2732
20.3262
20.2417
20.259
20.3803
20.7636
21.599
23.8201
28.3236
44.9596
13.7557
13.8873
13.9571
14.1587
14.6794
16.0282
19.5237
28.6041
50.8633
11.859
11.8214
11.845
12.0523
12.4124
13.2741
16.0318
23.7541
41.484
7.10184
7.13786
7.22797
7.44938
7.994
9.43333
13.4837
24.7676
53.2164
20.4332
20.2324
20.3889
20.5358
20.8273
21.3385
17.2211
26.751
47.0037
11.7541
11.8687
11.9679
12.188
12.686
13.8247
17.0143
27.6468
54.1097
4.55173
4.52925
4.40424
4.60387
5.10457
7.30267
21.4091
20.55
41.2442
12.4771
12.639
12.7543
13.059
13.8541
15.712
16.0579
32.0117
58.2335
28.1859
28.1275
28.2025
28.4028
28.9164
30.9579
40.1071
38.6207
65.6226
25.7344
25.9343
26.0699
26.3938
27.2051
29.1732
33.8299
44.7085
72.6415
53.1818
53.2705
53.3469
53.5253
53.9086
54.5055
56.0493
63.1047
91.3004
48.0552
48.0618
48.188
48.5075
49.276
51.1492
55.877
67.8802
97.7926
26.837
27.2932
27.3993
27.6424
28.2351
29.6639
33.1864
42.8641
104.358
56.9736
57.0382
57.2017
57.6139
58.617
61.0617
67.0615
81.6254
119.81
15.6376
15.3967
15.459
15.7516
16.4789
18.2187
22.2829
33.1172
91.785
77.9605
77.9512
78.1183
78.577
79.7206
82.5783
89.8329
108.104
150.866
82.6162
82.617
82.7506
83.1059
83.9288
85.7401
89.3897
98.2159
158.183
124.465
124.475
124.687
125.221
126.502
129.638
137.431
156.695
200.941
131.153
130.999
131.14
131.505
132.32
133.96
136.861
143.298
189.764
132.3
132.312
132.544
133.136
134.548
137.975
146.119
164.969
205.069
58.7917
58.7064
58.8998
59.3969
60.5275
63.0107
68.5525
84.5728
171.14
102.841
103.007
103.295
103.977
105.638
109.702
119.711
143.768
201.073
113.559
113.494
113.633
114.005
114.823
116.515
119.862
127.975
169.201
99.4288
99.6582
99.9263
100.566
102.088
105.731
114.566
136.079
184.478
20.9028
21.0172
21.0451
21.2026
22.3249
22.9525
25.8154
34.7596
63.5125
-11.0541
-10.9998
-11.5212
-11.3992
0.265366
-8.64214
-3.09499
29.6101
123.9
22.9171
23.7285
25.5036
25.2212
27.3345
28.2398
34.06
47.2274
87.1929
20.5457
20.5895
21.3828
21.4542
22.1098
23.0421
27.3282
40.7495
83.6274
18.1798
18.2835
18.2863
18.2661
18.8837
20.7305
25.3793
38.9668
83.8939
19.9437
20.0088
19.9238
20.2793
21.2415
23.1709
28.0784
42.1896
76.149
-13.8663
-13.7763
-13.4091
-13.0688
-12.3724
-10.0614
-3.76436
14.3627
81.5554
32.5415
32.6146
32.7453
33.0564
33.8488
35.8683
40.9691
55.4078
104.1
-10.5786
-10.5477
-10.4222
-10.0953
-9.33212
-7.17851
-1.61522
14.1283
68.3115
19.4096
19.3617
19.4858
20.0384
19.4728
22.1429
27.7074
41.8997
90.3448
37.6221
37.6038
37.7454
38.1358
38.5926
41.0654
45.768
57.6238
100.04
38.6983
38.7135
38.848
39.2008
40.0453
42.0282
46.9243
60.0899
111.646
51.6712
51.4845
51.619
51.9957
52.9346
55.2262
59.8216
73.0465
124.295
92.468
92.674
92.8397
93.207
94.0307
95.8702
100.437
110.951
151.478
93.5914
93.6838
93.85
94.2394
95.1209
97.0873
101.553
113.032
154.943
74.2915
74.332
74.5143
74.9528
75.9458
78.1786
83.3484
97.0263
149.47
42.6739
42.7483
42.9542
43.4514
44.6029
47.1024
53.0842
68.6337
116.203
85.6604
85.7153
85.9184
86.3861
87.394
89.7088
94.9025
108.132
155.691
53.2357
53.2169
53.4229
53.9217
55.0314
57.4971
63.2078
78.1471
128.541
17.4507
17.5106
17.6199
17.9342
18.8221
20.6929
25.8215
39.9017
75.9811
-2.13798
-1.76923
-1.53572
-1.08617
0.282969
2.05528
8.18454
22.7779
64.3136
18.463
18.75
23.0418
23.6344
24.7543
22.4141
28.2097
49.4521
90.6624
14.364
14.5065
15.1132
15.3974
16.2553
18.3663
25.2546
44.8669
92.5112
17.8938
18.2005
18.3798
18.8179
19.9287
22.7882
30.3674
50.892
100.97
7.07075
7.23262
7.44369
7.9952
9.28844
12.5351
21.0249
43.6799
99.9882
5.22852
5.53377
5.7758
6.30566
7.60728
10.9185
19.522
42.3667
97.7648
2.32945
2.55761
2.7869
3.34566
4.75518
8.3548
17.6718
41.7587
95.8004
9.88167
10.025
10.2307
10.746
12.0876
15.5485
24.2918
46.0401
92.7411
5.70703
5.85932
6.08145
6.69286
8.17242
11.6661
20.5272
43.2144
96.5988
37.1166
37.327
37.5835
38.1983
39.639
43.1679
51.8788
73.2712
119.306
56.7846
56.8229
57.037
57.591
58.9401
62.2607
70.6071
91.776
140.19
74.8793
74.9056
75.1141
75.6591
76.9742
80.1507
88.0616
108.519
155.683
94.0193
94.0726
94.306
94.8715
96.1971
99.3502
106.988
125.843
169.205
91.457
91.4679
91.7157
92.3312
93.7518
97.0339
104.845
123.904
166.617
72.8113
72.9562
73.2498
73.9534
75.574
79.3514
88.2638
109.645
158.587
56.3774
56.5268
56.8442
57.5863
59.2777
63.1758
72.4632
95.0489
144.967
77.9281
78.1026
78.4364
79.2065
80.9357
84.8373
93.7912
114.745
160.995
56.1184
56.3085
56.6561
57.4558
59.249
63.3105
72.773
95.3591
145.023
66.5712
66.6375
68.2517
75.8002
80.9064
81.44
81.8817
75.1553
70.9827
73.9655
73.4755
75.2762
68.9937
62.7804
50.6577
49.0022
47.4533
44.6598
49.7016
71.7485
72.286
68.4625
71.46
69.7615
71.0749
67.836
63.6175
64.0387
66.3084
68.3226
74.2097
70.9689
60.1095
51.5247
45.2676
45.9556
38.8208
52.4121
67.7959
71.8299
76.6357
72.3199
75.2973
73.1802
68.9396
65.7731
65.8018
67.4752
64.4803
66.8968
67.8829
66.6169
56.2691
47.7786
48.5817
50.9091
55.8017
69.5703
67.7915
67.2245
65.2282
67.9444
65.065
59.1069
58.0075
56.1266
72.437
60.5994
60.2359
64.6769
62.678
54.9417
47.7501
45.5488
46.394
42.2918
64.87
68.8255
72.0599
65.5521
70.1839
70.9129
63.7292
60.3779
61.8146
52.6554
65.5642
52.6631
70.3105
63.182
60.5054
54.2796
50.3439
57.8346
54.3502
61.9646
63.2587
66.9442
66.9495
69.9562
65.0029
61.7084
62.334
63.0857
58.1083
67.6047
52.9612
55.4208
63.7997
59.6969
53.6055
49.7798
49.8558
48.9103
53.2717
57.246
58.3397
62.8889
65.9306
64.0234
63.6061
67.278
71.5661
70.5992
47.7984
61.8651
64.3122
69.2366
82.6895
44.6334
49.9817
49.2562
53.6474
56.3604
56.9448
59.3
62.6184
65.1233
64.1521
67.4312
78.3886
73.9906
65.9527
57.5151
62.6695
50.6263
80.7236
67.6832
58.5154
42.3744
49.6908
47.7895
52.3117
52.1447
53.4116
60.3173
64.1106
70.6817
74.5708
85.1746
84.7868
68.3321
64.1496
51.1114
48.2223
60.0888
73.0059
84.5873
44.0605
54.4061
51.5749
51.7599
52.664
55.4115
58.6212
68.3134
73.2848
81.0899
84.4622
79.1819
69.4145
60.9413
58.0367
53.7674
44.9488
81.7145
74.2022
54.6788
55.3381
50.5747
50.547
48.7787
53.3408
59.5256
66.9727
78.9118
89.0523
89.9496
82.9494
71.3185
60.9058
57.1449
42.9739
52.7913
62.2573
74.0421
78.5987
54.6124
54.4794
51.5453
54.6019
56.7607
61.4463
63.6371
81.1606
85.9235
84.6921
75.9925
67.4919
63.2793
49.0303
54.3331
52.2694
49.4231
80.6461
72.77
51.2836
44.9163
51.0495
55.7103
60.2063
61.5488
68.7947
81.1951
87.8095
86.7103
75.7935
65.22
58.9832
52.962
55.7982
42.1656
55.7184
57.2713
70.5692
54.6567
57.7701
56.527
60.6564
60.9305
61.7841
73.1211
79.6467
78.6784
85.1751
72.0183
60.2964
51.6687
54.9434
45.2179
56.9555
52.5828
49.7274
73.9369
67.9086
50.0348
57.3199
65.1187
60.7171
71.3214
65.4106
76.6617
79.7215
77.9231
73.638
52.1358
48.2703
51.1767
48.4722
55.4959
42.0297
52.1878
48.7218
65.9589
58.7938
60.8533
63.3255
51.293
75.7025
66.7486
68.3419
76.917
60.7789
70.3435
53.6466
46.2375
47.1973
53.1511
39.931
58.6836
53.4189
52.7449
55.6912
70.0681
64.5136
62.3681
58.1934
57.3094
72.1348
69.8293
62.4153
55.4078
52.3529
48.947
38.6496
44.5211
45.3948
45.6599
58.5209
45.6036
50.3001
51.0085
59.3448
61.8256
55.0736
64.2201
53.803
69.8415
63.8835
51.2595
59.9264
41.9486
53.9623
40.5999
44.0934
44.8951
50.1695
40.8003
38.1186
52.7439
55.1904
56.9503
63.4479
59.7658
55.6452
58.1312
52.917
59.3458
47.1123
43.1663
37.3482
43.3285
43.4422
36.1954
45.0321
37.9579
46.9621
49.3308
53.1915
58.8796
64.6025
53.7837
61.0095
50.3794
60.4435
49.7449
53.6857
48.8933
34.7036
46.968
33.117
51.4297
36.1135
41.6859
42.5177
53.0235
49.6747
49.4981
57.3208
64.4201
55.4108
55.4153
59.3322
50.1324
51.7938
44.921
32.0419
31.9217
41.5196
39.8782
38.8659
43.4318
41.9504
37.3882
44.8817
54.4581
53.3747
61.3426
69.196
57.3641
52.6464
54.3916
44.7028
45.283
38.2688
37.933
38.8107
28.3154
46.4915
27.9978
50.0923
35.8772
34.9018
48.2023
49.5764
50.61
55.1696
64.8861
57.9584
55.0958
46.2152
47.0078
42.7913
30.1976
30.4054
40.3458
29.3503
33.7659
36.6564
39.7341
44.965
38.2371
36.4733
53.8048
56.369
60.9685
70.7438
54.489
51.5109
43.4371
42.2356
34.9251
33.5835
28.063
35.9984
38.6043
23.5485
44.5134
27.3985
51.1248
35.4529
37.9786
54.0256
53.2204
53.8884
59.8618
57.4699
48.4507
41.2029
31.1429
30.7259
28.1919
24.3028
26.4849
26.6801
26.3701
41.0431
33.0337
34.6329
42.175
44.9559
50.8528
57.326
58.842
67.6236
53.2957
50.4493
41.604
32.7537
30.8
25.0189
26.8364
27.168
31.4839
37.4709
24.4504
43.9406
28.901
47.936
38.1394
50.0188
52.7381
52.5191
58.7208
55.1051
44.7729
33.3311
30.0527
21.8929
25.6237
24.5486
24.4033
25.058
40.4527
28.0766
37.2606
43.6962
31.2397
50.3866
53.8335
58.3435
59.1738
64.1969
52.332
42.3162
40.0487
30.7268
26.5172
25.1211
24.0504
25.6829
26.9079
36.404
39.1991
26.1936
48.7483
32.1933
51.1608
50.4247
54.9377
52.5916
58.1013
50.2706
40.6452
31.6687
26.6394
25.0921
20.063
22.3272
21.6533
25.3055
25.6654
42.208
36.6525
46.1882
54.3151
52.4386
58.7147
58.1835
57.9283
64.7002
47.8598
41.8935
33.0189
29.2186
25.7509
22.4645
21.9973
22.6587
26.8056
29.7102
41.0386
41.6495
42.9919
45.309
37.0885
52.5766
56.6876
53.7505
60.7041
43.8537
38.1478
30.9854
29.0558
25.9225
23.3195
21.1541
24.1395
23.8681
29.2636
35.0036
43.6134
49.2054
51.3058
56.3193
63.2264
57.5288
61.5096
63.9015
43.1857
36.6991
30.6978
27.8085
27.0452
22.9242
21.6067
22.4567
24.3278
30.4841
34.6885
39.2692
47.008
48.3063
48.6552
57.6051
58.4328
55.6676
60.2206
41.64
30.7731
37.7928
29.0419
27.6719
25.9488
23.7574
23.5781
28.9313
33.6729
41.7928
50.1494
56.5313
56.4323
64.4552
63.2195
62.6908
62.7369
64.579
38.0985
35.1482
35.8933
29.539
26.9066
25.2578
24.1681
24.1372
26.5926
31.3509
38.2651
46.5143
52.2299
53.2645
55.198
60.1571
61.273
57.6267
62.0255
39.3522
37.6484
28.5197
34.7847
29.0658
29.4548
28.2164
28.9419
34.2861
40.5431
49.9425
60.4834
65.2525
65.8804
65.4153
61.6621
60.6923
62.3816
63.8027
35.4669
28.3459
37.0839
35.4973
28.7774
30.4974
26.4301
28.5166
32.2518
38.1464
45.9016
54.7762
59.525
59.99
58.7188
62.4119
58.9123
55.6024
60.9698
40.1547
38.5559
37.0345
28.0016
34.65
33.3884
34.8191
38.8134
42.032
50.4764
60.2106
68.5514
70.5369
68.8999
58.6525
55.5963
54.1783
59.1417
64.8165
37.5347
36.6678
29.3413
36.483
38.9457
32.8649
38.1389
36.6468
41.3932
47.761
52.5928
62.5725
67.4479
63.7965
60.8658
59.1649
54.9299
54.6286
61.6021
121.891
165.973
120.533
108.853
132.868
108.515
114.762
95.3764
90.9522
94.0514
91.3766
87.3658
93.9726
96.5191
84.5039
73.3975
73.168
73.0194
71.6568
134.998
140.182
112.625
103.1
107.534
100.137
102.651
83.6695
77.4619
91.5206
91.0379
83.9368
91.7165
91.5749
77.5444
70.6814
77.2985
73.6434
71.4323
134.95
132.081
94.969
93.4867
102.812
115.449
119.596
102.445
106.577
111.595
103.972
96.1488
102.537
99.3691
85.1449
77.2681
77.8174
71.3836
65.4485
120.242
120.207
98.4384
90.8507
92.2404
97.1499
95.5744
94.7741
94.4407
97.7177
88.1544
93.8712
98.842
89.8106
84.1811
83.8475
75.6866
69.153
66.5769
123.367
123.942
84.6459
90.4664
101.229
103.776
112.727
103.29
106.443
103.769
100.694
94.6106
101.102
97.847
85.0513
84.8791
79.609
69.7665
67.431
110.341
111.493
91.6535
85
88.8089
88.4093
85.737
84.4324
93.6868
100.431
103.461
89.5605
96.9455
94.2378
84.6309
83.9609
76.2746
61.4567
63.7657
133.924
106.778
82.1208
78.8688
84.9359
95.3036
100.059
104.11
102.845
85.4742
90.5197
100.827
90.7523
89.4812
88.0414
89.2364
76.5906
71.0903
68.4037
123.673
99.5471
83.8771
76.2981
78.224
80.6968
81.7251
84.2333
90.1292
92.0169
93.0495
98.8534
91.6183
87.1658
86.1573
85.5467
77.5012
68.7332
60.0243
118.409
106.55
82.0076
79.0111
79.3633
82.1392
83.0375
86.7001
94.9954
83.551
90.7983
100.207
96.2742
92.1187
87.7326
87.31
79.0084
70.8279
55.5109
112.984
101.131
80.1209
71.9968
71.2875
71.8087
74.469
80.1207
85.0821
83.1729
90.9072
101.707
89.4062
87.8205
88.8479
88.9107
78.8564
71.5481
57.9905
85.5074
111.866
69.024
70.1051
67.9342
62.9482
72.4436
78.9011
90.065
77.2647
89.858
97.9254
92.2375
95.2028
89.6114
90.1039
80.3436
64.3981
51.1366
91.7219
98.6808
74.4717
66.5344
60.2374
60.2204
64.1373
72.6171
76.7586
74.7862
88.1055
98.6798
88.5924
88.6539
94.2618
91.11
71.7783
63.6838
55.9054
118.076
87.3825
52.0834
60.4026
61.6695
51.2133
64.3634
76.2099
83.8283
73.7519
83.7389
86.3526
87.5132
92.7942
96.8419
86.4636
71.9591
55.7144
50.2104
102.523
81.621
66.4553
65.4488
61.0727
52.1764
55.0735
65.5234
69.543
72.6021
86.8858
85.6291
84.3711
91.2988
97.0208
80.5035
66.1177
61.4218
56.6343
102.572
80.4873
60.8056
68.508
51.9297
56.7485
56.2815
59.5026
70.9188
64.3174
72.4604
83.5203
86.1328
93.4038
98.4186
80.8447
60.2644
59.0432
56.9396
94.3213
80.5059
66.3705
68.0593
60.2534
55.2574
53.1167
57.0617
62.7711
65.3321
71.5231
85.2588
79.607
91.2272
89.9671
73.1282
63.8554
64.2821
62.0152
132.056
60.0623
56.208
49.1149
51.24
55.287
51.1875
63.2136
59.9087
60.584
75.8133
78.0238
82.4887
90.3864
85.1008
70.784
64.2573
69.1524
70.0386
101.967
74.7782
60.1565
56.0009
57.5333
56.4502
54.4821
55.9421
56.0546
62.0749
68.0454
72.7244
74.4588
86.0933
76.9657
68.0289
65.6944
71.1165
69.0514
122.439
71.0489
45.9889
64.6977
53.3478
46.2193
60.8215
59.6879
71.274
66.2616
74.6146
71.3006
78.0299
82.1621
75.2012
66.5775
71.277
79.392
75.2569
97.4032
81.6077
62.2153
56.9675
52.8366
54.4411
52.2148
53.9768
58.0989
63.039
68.2977
67.1626
75.2907
74.1866
68.9178
62.5828
72.826
78.3662
70.7257
122.535
79.1781
60.8303
58.8037
53.991
60.3145
55.969
58.5229
62.9544
65.0412
65.1542
63.8943
72.8053
74.3122
66.1156
61.8498
80.0239
82.8259
69.4023
103.758
78.8351
63.3331
54.1254
50.1603
61.7101
55.9977
53.2559
57.3619
61.2132
65.3401
61.8237
65.9727
67.4619
62.1143
64.829
78.5619
76.8745
56.5706
137.12
81.2358
53.2413
39.0974
61.258
66.087
59.8367
62.3908
60.9813
42.3193
64.1305
62.5752
69.8659
68.6657
64.2057
69.6809
81.8891
79.0855
65.8041
116.893
90.234
67.4611
58.8765
56.3317
65.7295
59.2144
57.5712
59.4685
53.9106
58.9243
56.7387
66.5855
55.346
59.5951
68.4401
76.1306
69.4311
61.0982
166.514
97.9836
51.9517
54.9623
64.4104
56.4776
67.5128
66.71
65.105
47.7573
62.6773
61.6197
64.4379
57.3399
66.6438
69.1669
75.3525
73.155
67.3618
154.983
114.775
81.4875
71.94
69.9148
68.7382
70.0269
66.0612
59.0926
53.8523
58.0209
49.2949
59.627
45.272
56.1211
68.1955
73.2423
67.6158
61.892
182.896
89.5308
57.4188
66.8895
54.3552
79.4106
60.6812
59.3834
57.9474
54.2395
67.938
51.8125
53.4688
52.6059
61.8526
63.9831
67.4242
71.0305
66.0399
179.524
138.686
93.6522
87.9005
83.0779
75.1486
81.0395
65.2784
59.3703
56.7173
57.2457
42.4281
51.7143
46.9761
57.6841
62.0622
68.4516
67.5088
60.6362
222.593
106.233
90.1826
95.4719
85.3953
92.4164
71.0523
71.095
65.1432
52.8164
56.9981
44.5535
51.0305
49.3339
52.3963
57.565
62.4729
61.155
57.8025
237.465
174.435
142.593
118.075
106.808
100.014
87.292
79.9619
64.2818
58.9433
54.0998
39.1856
51.0719
50.2101
54.5235
57.8747
65.9766
60.8726
54.7567
283.999
182.418
105.366
115.015
123.032
95.151
101.84
69.5481
68.677
43.0226
45.2512
47.2047
52.4493
53.9991
48.78
51.2997
55.6908
53.4449
49.2518
284.337
238.487
171.691
130.077
128.85
112.246
102.966
82.1853
64.54
50.7301
46.1338
38.4835
49.3689
48.7993
46.636
52.7556
57.1448
52.2068
46.2725
321.884
183.635
98.2924
115.681
113.245
117.2
102.276
73.9225
50.1713
39.0691
49.2506
48.7638
52.4022
56.5278
48.4399
43.361
51.7923
49.8783
44.3446
295.543
248.744
176.748
158.029
132.966
124.362
112.07
90.631
63.0907
49.0424
44.7655
38.242
45.8198
51.3111
44.1096
42.0962
51.6743
46.842
41.1616
371.334
170.252
147.015
83.3071
92.4489
99.7208
95.8885
79.5205
51.4764
43.7402
45.4182
51.5941
37.9754
46.7251
50.2153
40.6222
40.3155
44.4542
42.5259
326.619
226.591
179.764
130.405
121.747
113.986
105.596
94.6908
70.7004
54.3611
46.3227
40.5292
40.2817
47.002
46.0947
40.8559
41.383
43.4088
37.9433
332.218
154.965
82.2109
59.7609
83.7141
88.8474
84.936
78.6284
51.0695
51.0566
44.6347
44.3701
41.2668
39.9029
49.4114
46.014
35.1128
38.5623
41.172
283.583
196.103
135.07
109.928
111.059
109.159
101.151
82.6167
70.4005
52.6542
43.9211
42.3946
38.6252
44.5829
47.1083
42.2011
39.1709
42.3228
39.2528
160.118
147.343
132.855
87.4466
84.3498
76.2937
81.7999
78.8924
76.5359
79.1221
73.7002
76.1863
86.1118
96.3921
90.8321
81.3249
71.8432
73.992
76.3658
117.86
188.164
94.0194
75.4244
54.3026
60.4089
53.7031
50.201
50.2814
60.3296
67.5253
67.5146
76.8345
90.5037
88.7394
77.5352
68.678
74.0127
68.5837
184.858
179.445
77.0395
50.7837
40.3463
48.6106
40.507
44.2765
43.8198
58.4745
61.7157
64.9694
78.3321
85.6193
83.4774
73.8502
67.9849
72.825
71.0066
236.924
181.942
83.8742
48.3836
49.2302
29.2517
19.9975
42.8404
45.1261
58.7196
64.9755
67.3589
78.2824
87.8009
84.0999
70.7217
73.6457
82.0693
75.0636
253.539
175.255
86.1008
46.0064
39.9396
26.3728
20.6104
24.6338
42.3948
58.5693
64.3003
64.5473
78.7195
85.4824
78.4523
74.8133
82.8126
84.6631
78.7549
247.062
178.806
78.91
54.9821
34.2262
23.8717
29.9596
22.1485
46.9821
53.878
66.4924
71.7064
80.8246
86.898
85.568
84.1045
86.8761
87.6949
85.0465
238.676
180.14
67.2058
20.7507
36.9912
36.0474
23.4857
35.1987
35.1495
59.6421
63.6183
71.2823
77.9291
92.5495
95.2921
94.5917
98.0045
97.3033
89.2799
271.184
168.393
58.3242
39.5535
38.6665
32.616
31.0341
42.025
45.5832
73.2963
75.6607
79.1524
84.7286
104.496
118.036
112.874
106.242
98.6218
87.695
269.815
168.212
63.5081
49.4733
49.8045
47.0918
30.7978
32.8701
62.0885
64.0168
90.3593
93.2693
106.074
117.912
127.529
131.385
114.055
97.0214
80.8575
259.384
167.279
68.6878
69.9003
68.0959
75.6116
45.4592
45.2062
100.97
91.0742
106.513
119.22
121.341
126.043
126.241
127.958
112.649
85.6118
84.1062
284.697
152.807
73.8861
50.6173
73.0044
89.7791
75.444
91.5145
95.5558
109.493
122.703
127.252
121.714
117.192
117.214
108.94
94.3128
84.1193
74.6892
279.471
181.266
88.8643
58.2972
99.8773
126.503
116.829
135.82
100.973
104.983
116.04
111.263
112.451
107.335
93.0293
91.0208
88.581
76.623
80.6803
280.654
164.685
83.2852
112.043
148.299
145.595
157.511
152.516
96.0557
99.2186
93.5572
95.0089
90.4754
85.0593
74.618
70.8667
76.0724
68.7424
67.4292
305.322
178.887
124.471
118.505
131.769
128.512
148.004
88.9516
83.9095
78.2124
73.7679
73.6602
62.5584
58.7397
57.7536
60.1808
60.1087
59.6262
56.9526
249.339
197.853
146.161
132.29
120.913
121.921
104.937
63.7773
60.0712
52.0505
52.3338
53.6118
46.4086
42.4505
47.763
48.2606
52.1432
52.3977
51.7099
344.135
193.359
143.874
112.991
88.8255
95.6556
66.0941
47.472
42.4016
37.1431
39.8603
39.1618
43.4696
36.3462
35.684
37.3348
41.2637
48.1403
49.3901
267.141
208.528
145.551
95.6988
74.1198
81.2399
71.6134
51.1617
35.4137
32.7549
31.683
27.5075
33.344
33.5567
25.2835
29.3164
31.0965
41.061
44.9856
307.578
200.803
120.359
79.0034
61.3779
80.8258
75.0986
51.771
32.3389
25.6875
22.1656
23.0144
23.2118
27.7876
23.5862
21.8517
25.194
31.3547
42.2362
265.943
219.469
115.11
105.832
83.002
69.5597
73.0325
46.3681
30.032
19.9939
16.8661
18.9788
20.0517
19.1932
20.3579
16.6765
21.2769
24.4369
33.3773
143.887
141.316
121.729
106.023
116.127
115.403
85.1237
89.0962
89.293
83.9107
74.5148
73.4712
86.5843
93.837
83.2436
70.7342
73.6452
74.9442
73.9466
144.043
178.135
127.918
105.124
104.49
101.61
49.7393
62.8133
64.5889
67.5971
69.069
70.7666
83.4401
89.818
78.64
75.0105
75.6456
79.3468
76.0006
176.513
170.636
130.157
98.2639
95.2351
80.7971
54.0088
50.301
54.8339
65.514
68.8728
68.4785
79.8864
87.9126
78.1788
70.7244
76.8743
79.8706
73.126
211.224
176.211
130.638
91.2107
87.9822
54.9393
34.353
45.0614
58.5643
64.6161
65.8132
66.2397
83.0311
92.0023
77.6573
75.6332
82.7021
81.3109
74.2982
215.138
179.018
132.227
87.7389
67.0179
52.8418
25.7355
27.6812
56.6961
69.9864
63.0911
69.5266
84.1433
88.9437
79.0378
81.1955
83.1467
83.6109
76.9231
219.059
171.118
126.557
82.0377
58.3552
24.87
37.3861
45.8755
54.0371
66.5971
70.2625
70.7359
83.596
87.9742
87.3571
88.8111
86.7175
90.3624
82.3681
214.274
176.733
106.701
60.0302
49.4823
43.2072
37.244
47.2652
46.4075
59.8628
67.1726
76.6581
87.5242
91.8926
92.1542
95.2286
97.6911
94.4953
81.6586
218.622
170.758
101.35
61.4516
43.3227
31.8598
34.0343
43.7304
68.8576
67.009
75.8429
83.9665
92.1077
110.116
113.664
106.63
104.505
93.1368
77.7693
216.123
170.075
101.649
66.3432
46.7777
37.2752
34.2981
46.197
75.8085
67.4135
86.5931
98.6039
111.567
120.343
126.861
121.677
101.004
98.1029
78.6454
216.146
170.483
104.337
69.6543
60.1727
52.5406
40.7148
32.4395
92.547
83.6551
104.403
117.149
115.822
119.361
124.991
119.403
96.2559
83.2924
78.421
230.173
174.974
105.719
70.2483
64.2436
64.0963
47.9084
51.8103
103.176
110.163
114.696
116.19
112.711
114.198
111.035
101.92
90.4369
76.758
72.406
253.11
196.15
124.026
90.3611
93.8552
94.8528
77.4357
80.0207
86.3149
88.3574
104.494
106.838
109.767
92.238
89.0443
86.3304
80.5053
75.3494
69.2234
257.497
209.906
143.134
125.584
122.097
115.65
96.6659
89.8277
86.2402
90.149
83.8876
84.2764
86.356
72.9847
72.2599
70.9919
69.1808
65.8582
61.0834
259.954
212.056
168.923
146.834
136.579
121.128
107.772
89.2713
83.7439
69.4973
66.2213
63.6854
53.8164
54.0216
54.3049
56.1451
56.1503
54.8518
57.6152
240.642
219.746
188.214
160.088
132.827
116.2
90.6856
69.8767
60.8759
43.742
46.7809
45.6727
38.3902
39.7224
42.5396
43.4382
47.615
47.2671
49.0901
256.97
229.819
181.631
149.62
124.85
103.817
73.4399
52.7489
42.4785
30.6843
32.1993
33.7381
35.4751
29.3719
31.9986
32.5465
36.9709
40.7388
46.0288
241.04
228.734
175.896
140.927
115.34
100.302
77.2578
53.1117
36.2292
27.8225
23.7222
23.771
24.9522
24.0193
19.9076
24.4311
25.46
34.5436
38.5019
242.972
224.073
163.446
130.187
106.942
96.8786
82.545
54.5576
33.3159
23.8231
20.3697
17.7201
16.2581
18.7261
15.085
17.5918
19.9903
26.7361
34.4769
232.476
224.453
166.064
132.895
110.085
93.0648
80.7898
58.4899
34.2493
22.6174
15.1386
12.1877
11.0482
12.7558
9.53473
12.6239
17.5833
19.5275
27.747
261.621
203.709
114.514
80.0073
54.0818
74.1966
63.7975
39.7147
25.9283
18.0596
14.8395
17.8452
20.3201
17.5368
18.5634
22.7115
25.2037
28.5525
41.3286
224.822
213.28
161.43
121.748
104.01
92.4434
83.4465
57.6487
30.5291
20.7016
12.2919
8.77697
9.17321
9.91884
6.58787
9.25041
13.8387
20.7193
30.1124
261.077
184.614
97.2004
74.3024
54.6948
81.2257
80.7127
34.272
19.4814
15.4842
15.7356
17.3082
18.457
20.77
17.4243
17.1517
21.9611
28.1841
39.7683
232.008
201.25
146.242
115.405
100.128
88.9103
75.1433
44.3413
23.4663
15.0344
12.143
10.169
9.01903
11.0331
11.9895
16.9473
17.8647
25.5334
34.1181
235.257
186.932
100.184
83.0696
45.0095
102.212
83.4032
31.4104
22.2069
18.8662
20.2835
21.1923
23.4282
22.4645
17.8055
25.1307
27.7243
38.6965
46.094
220.288
195.444
153.243
119.968
95.8612
83.8361
67.3866
37.6746
21.5879
18.4395
13.2207
12.135
12.1162
13.3705
11.2042
18.4335
20.1802
32.778
39.5377
279.633
187.719
123.084
87.0321
63.8294
29.3627
18.674
24.2756
25.0619
22.566
22.282
26.4279
33.1292
23.3159
25.1446
28.5983
35.0727
45.4776
54.2571
230.722
204.186
156.844
129.872
99.32
76.0617
53.7755
28.1342
24.8787
17.8693
18.0465
18.2861
20.5674
15.8135
19.2708
21.866
31.1361
38.9598
46.3117
262.902
181.634
116.739
80.2263
69.9468
46.5051
24.362
27.9292
25.8609
27.472
27.6416
31.0705
33.0892
30.2116
33.6431
36.9836
46.8876
53.6465
58.1399
238.276
211.44
156.652
126.668
102.9
77.4822
54.2254
36.4341
24.2163
20.131
19.3708
26.6555
23.2617
24.4463
25.4897
31.4421
40.7789
44.8577
50.2629
253.536
201.258
123.285
82.9976
62.9892
50.0881
52.7836
38.688
35.5986
36.8803
39.6024
42.3232
34.5406
43.6211
41.406
52.4479
58.7375
60.1588
56.8439
242.617
215.559
175.817
133.439
101.762
75.8769
54.3176
30.5045
20.0169
27.9339
31.8381
31.5157
29.2124
35.7332
32.655
46.0669
50.2465
51.1199
52.4155
210.964
171.792
103.223
101.376
94.3474
66.0024
47.0608
53.1424
49.8155
47.1304
50.3915
54.8718
52.6683
52.9592
55.0776
65.6748
68.61
63.4485
63.9893
225.969
208.271
151.582
128.683
106.146
82.1135
63.5995
40.9263
38.2384
45.5819
43.5705
46.8827
48.2303
45.1362
52.5771
56.514
57.7364
55.6713
57.4122
238.584
136.923
117.78
120.033
86.8927
87.7492
77.7962
78.9514
73.6378
64.9598
66.0769
68.5943
74.4175
66.0658
71.2948
79.7248
75.4926
72.1593
66.2413
195.151
179.553
131.286
133.42
100.277
84.1652
75.85
65.0315
60.1768
55.7866
51.6823
63.3981
62.8943
64.0279
68.9863
70.4001
70.2947
63.8622
59.0493
226.311
146.849
89.0693
100.504
117.043
85.958
101.235
74.0702
69.9557
79.5905
86.6678
93.4665
85.8968
79.6
81.4416
86.5669
79.6925
77.5414
73.5252
195.653
155.182
113.165
106.951
104.645
91.7903
84.2892
78.0121
73.5155
78.0296
74.9648
85.2237
82.5106
76.7878
74.8834
76.1698
77.0129
71.5207
65.1075
240.676
131.835
66.955
57.7378
83.3698
89.818
89.0817
98.7326
94.5025
97.9917
103.597
106.256
93.6207
90.5063
90.9593
96.7328
91.0391
87.6488
77.8292
183.369
138.117
93.5227
75.5319
79.3922
85.7243
87.1374
93.6527
92.3552
96.6785
91.7394
103.621
92.1909
89.9049
87.843
90.1379
85.7085
75.5684
71.5267
228.766
143.655
60.3677
41.9042
48.6927
40.7636
61.6567
85.2721
95.7038
93.1565
99.2626
105.077
99.6139
93.3514
98.8304
101.854
98.1948
92.6514
83.8957
181.629
136.834
78.094
57.7514
62.6619
67.8764
79.6645
93.93
105.357
106.774
91.9864
101.054
92.4081
94.2332
97.3236
97.9397
90.7011
88.5589
72.3789
246.301
128.582
58.1718
31.3681
50.2609
54.8827
60.0868
61.0311
79.4938
80.3411
86.5152
95.0747
96.7369
90.0339
85.2245
96.8219
98.2173
90.9336
80.6672
187.72
131.253
74.3723
45.3078
51.7382
59.496
76.3599
86.4508
92.6662
90.4961
86.7527
94.9478
94.5331
92.4007
91.2832
92.0637
86.5154
86.1219
71.2315
170.736
156.376
61.0093
13.8199
9.64399
56.3059
47.8119
55.07
59.9787
64.6241
72.1963
83.2693
86.7258
79.7474
76.454
82.4445
91.912
89.2364
74.8095
167.006
139.458
79.3435
45.6747
50.887
62.1368
66.0935
65.9768
59.2065
67.7024
71.0725
82.1955
86.2637
79.6433
79.2464
87.4134
90.0593
80.9591
67.7044
229.299
163.037
79.729
15.6496
12.4678
41.5437
52.3807
43.2288
62.7024
63.441
67.1444
70.5202
75.5413
73.7223
71.5975
77.7235
81.0819
81.34
74.5274
196.278
151.521
94.746
51.0814
49.5316
56.2096
54.581
56.884
69.0375
67.6368
65.9114
69.5612
77.7895
73.1568
70.4274
79.3236
85.4558
80.6091
69.7881
240.385
160.111
85.26
39.6561
29.5961
39.0822
54.2737
39.1712
53.8507
64.2851
69.4956
71.3305
76.7436
74.1063
64.1781
67.4679
76.6095
76.307
69.6653
191.301
155.037
101.995
62.7876
45.0755
48.5598
63.1894
46.3032
61.7892
67.992
68.0912
71.7226
78.3833
71.055
64.1297
72.1642
81.966
79.5528
68.1168
133.224
170.785
75.1328
45.2603
31.7665
33.9867
34.2282
42.1563
52.032
61.0911
62.0181
64.0065
78.5936
77.6661
67.1473
59.397
63.6254
72.5581
69.4081
184.168
154.151
99.4424
67.5733
39.7763
41.0966
48.4908
47.5232
56.7044
61.7476
64.3502
70.252
77.7163
71.9588
61.8474
64.2751
74.7143
77.2084
69.272
193.7
154.292
62.9002
49.2043
32.8986
39.7183
37.5304
42.9512
53.2483
57.689
58.9145
61.7263
78.7098
78.429
67.3347
58.1438
60.6589
70.2437
66.5054
194.624
152.033
97.0225
65.1114
40.7797
32.458
50.3629
48.799
54.624
61.8368
66.7954
72.6791
79.3918
74.9248
61.3986
60.7467
66.135
71.7768
67.4429
196.216
152.688
80.1988
56.1557
36.4719
38.9368
40.9092
40.3837
55.7002
63.4472
63.3318
62.4788
70.8422
77.0572
76.3765
63.9403
57.9108
70.3428
67.9959
201.289
148.246
102.234
68.1373
32.9758
32.5749
51.2219
48.3115
50.0082
61.6323
64.9797
64.5952
76.4355
81.0135
67.4976
62.6819
63.5365
71.0951
66.9744
275.673
188.228
86.859
68.947
69.4658
60.6511
54.2955
51.3767
56.927
59.5145
62.9168
69.5904
76.3228
85.9882
76.5653
64.7587
54.2645
65.5636
67.6925
224.108
176.482
115.056
81.7482
56.1303
52.3659
42.7212
39.3486
54.1569
65.616
68.5878
66.4995
77.4039
83.6446
69.6536
61.9216
62.8898
68.4566
67.1417
45.9249
45.8999
46.1165
46.6418
47.8135
50.4404
56.6213
72.6638
122.344
43.2991
43.507
43.8722
44.706
46.5738
50.8022
60.6492
83.8698
133.347
28.6274
28.6766
28.9115
29.4732
30.7605
33.8034
41.3581
60.4156
233.91
42.7164
42.931
43.3045
44.1552
46.0635
50.3874
60.4807
84.414
201.257
36.683
36.6485
36.8822
37.4533
38.7248
41.5632
48.0773
64.6663
195.217
37.5125
37.6786
38.0168
38.8048
40.5953
44.7294
54.647
78.7371
196.647
43.6129
43.6549
43.8768
44.4049
45.5905
48.2675
54.5437
70.4989
197.548
54.2757
54.4541
54.7703
55.4972
57.1463
60.9359
69.8938
91.5249
199.941
89.2814
89.3367
89.5162
89.9355
90.8868
93.0259
97.9559
110.508
230.493
70.6395
70.8437
71.1411
71.8094
73.3336
76.8429
85.1175
105.143
207.668
64.373
64.4095
64.5743
64.9734
65.9025
68.0628
73.2106
86.5146
205.633
70.6643
70.7571
71.0099
71.6065
72.9952
76.2683
84.1593
103.557
200.601
75.0967
75.2305
75.4169
75.7572
76.5525
78.4718
83.1318
94.9708