/*--------------------------------*- C++ -*----------------------------------*\
| =========                 |                                                 |
| \\      /  F ield         | foam-extend: Open Source CFD                    |
|  \\    /   O peration     | Version:     3.1                                |
|   \\  /    A nd           | Web:         http://www.extend-project.de       |
|    \\/     M anipulation  |                                                 |
\*---------------------------------------------------------------------------*/
FoamFile
{
    version     2.0;
    format      ascii;
    class       volScalarField;
    location    "345600";
    object      DSigmaEq;
}
// * * * * * * * * * * * * * * * * * * * * * * * * * * * * * * * * * * * * * //

dimensions      [1 -1 -2 0 0 0 0];

internalField   nonuniform List<scalar> 
23248
(
12.426
12.4257
12.4238
12.4308
12.4505
12.3855
12.4385
13.5558
20.894
10.8215
10.8217
10.8299
10.9046
10.8917
10.8974
11.039
11.9595
14.8264
12.5864
12.587
12.5857
12.5806
12.5679
12.5451
12.6332
13.8723
21.0962
9.17346
9.17539
9.1759
9.17548
9.18117
9.20469
9.37769
10.4968
14.2508
7.71594
7.71856
7.71909
7.7169
7.71436
7.73253
7.98891
9.91327
18.6948
8.51324
8.51201
8.51065
8.51004
8.50999
8.5292
8.70116
9.8014
13.7105
12.131
12.1333
12.1318
12.1248
12.1113
12.0758
12.0894
12.9938
19.2813
11.2651
11.2643
11.2626
11.2598
11.2542
11.2479
11.2872
11.7574
14.1216
19.3112
19.3087
19.3059
19.2969
19.2956
19.251
19.2145
19.5827
21.8038
11.5457
11.5448
11.5453
11.5475
11.5489
11.5623
11.6385
12.0334
13.7854
6.89186
6.89302
6.89514
6.90634
6.94272
7.04199
7.45848
9.53343
20.1493
8.56045
8.56082
8.56163
8.56765
8.58602
8.65874
8.94843
10.0957
13.1711
8.41793
8.41383
8.41268
8.41388
8.41038
8.37497
8.62069
10.3364
17.8389
10.9432
10.9437
10.9453
10.9492
10.9611
11.0037
11.1904
11.9937
14.2193
14.1689
14.1606
14.1542
14.1478
14.1286
14.3558
14.3468
15.1832
19.4935
12.2983
12.3065
12.3109
12.3162
12.3263
12.3669
12.4734
12.8901
14.1278
13.389
13.3865
13.4014
13.3697
13.3461
13.3219
13.4823
14.7427
19.3713
12.2133
12.2171
12.2203
12.2232
12.2371
12.2849
12.5005
13.3615
15.5544
16.4418
16.4198
16.4482
16.4455
16.4362
16.3192
14.8892
16.4649
21.7075
14.3596
14.3681
14.3767
14.3871
14.3973
14.3954
14.5535
15.1734
16.7013
12.4872
12.4908
12.5286
12.5104
12.5177
12.6403
15.3822
15.0355
21.4626
15.7448
15.7511
15.7657
15.7755
15.7933
15.8194
15.0645
16.5367
17.7611
24.4977
24.4909
24.4816
24.4636
24.4497
24.995
22.6524
22.3443
28.9708
19.8135
19.8159
19.8158
19.819
19.8286
19.8225
19.8001
20.2776
20.6896
27.3942
27.3942
27.3921
27.3795
27.3527
27.1561
26.9544
27.7283
32.0356
24.6725
24.6867
24.6869
24.6883
24.6899
24.6954
24.7513
24.9239
24.6531
41.8343
41.8735
41.8728
41.8531
41.8072
41.7059
41.582
41.9515
36.4101
29.4043
29.3964
29.3951
29.3957
29.3973
29.4047
29.4392
29.4757
27.0395
30.8744
30.8042
30.8053
30.7977
30.7792
30.7646
30.9969
33.2024
42.5639
27.3374
27.3366
27.329
27.3132
27.2781
27.2066
27.1008
27.2452
28.8309
36.8129
36.694
36.689
36.6643
36.6107
36.5317
36.6985
38.9148
42.9727
24.5206
24.5054
24.4827
24.4343
24.3208
24.0552
23.5034
23.2987
26.5649
32.254
32.2633
32.2508
32.2239
32.1753
32.1388
32.4167
34.8869
41.3394
23.2673
23.2661
23.2387
23.171
23.0169
22.6972
22.0634
21.7815
25.6195
21.9512
21.9449
21.9245
21.8818
21.8073
21.7722
22.4131
27.0711
40.496
23.2102
23.1987
23.1699
23.1006
22.9476
22.6353
22.1664
22.4218
24.266
24.6875
24.6948
24.6806
24.6447
24.5731
24.4691
24.5456
26.2767
34.652
20.2452
20.2218
20.1968
20.1387
20.0068
19.7242
19.2443
19.3575
23.7759
11.6716
11.6673
11.6586
11.6868
11.9882
11.7599
11.804
13.4621
21.799
7.40041
7.36506
7.07532
7.0433
7.80693
7.52454
8.50686
11.1063
26.8591
10.516
10.4816
10.3318
10.4473
10.8349
10.5407
10.8552
13.6448
26.6603
11.9554
12.0417
11.8143
11.7909
11.7609
12.0821
12.3948
14.6144
27.3703
11.522
11.5292
11.4841
11.4168
11.4026
11.4479
11.8314
14.6207
25.9867
15.2272
15.2012
15.1283
15.1275
15.1653
15.1897
15.5009
18.0674
27.8105
7.14456
7.13694
7.14511
7.16618
7.24354
7.56187
8.98404
14.5063
31.3522
16.7333
16.7308
16.7296
16.6705
16.6577
16.6212
16.9286
19.6652
31.581
14.457
14.4567
14.4476
14.4244
14.4181
14.4922
15.3184
19.0381
31.4379
21.0983
21.0978
21.0928
21.244
20.387
20.7286
21.1582
23.5865
32.2042
27.8225
27.8205
27.8014
27.7615
27.4403
27.5666
27.4865
28.8382
35.7315
25.0203
25.0131
25.0028
24.9794
24.9237
24.8549
24.99
27.0932
36.2994
17.6946
17.6569
17.6461
17.625
17.5922
17.5919
17.8496
20.6951
31.41
22.4288
22.4643
22.4534
22.4241
22.3547
22.2509
22.4145
23.8395
31.0206
21.3138
21.3077
21.2935
21.2608
21.1977
21.1136
21.2045
22.6813
30.3984
16.6207
16.6173
16.5986
16.5581
16.4856
16.41
16.6376
18.7874
27.436
10.6335
10.626
10.6085
10.578
10.5434
10.5714
11.2743
14.924
25.6684
16.9011
16.8959
16.877
16.8333
16.748
16.6739
16.8877
18.8581
26.4527
13.912
13.9101
13.8906
13.8496
13.7848
13.763
14.2472
17.2448
26.8326
10.6897
10.6853
10.6866
10.7484
10.7498
10.8145
11.0397
12.2023
15.4878
8.71184
8.73778
8.80399
8.82421
8.46417
8.94084
9.54688
10.4163
13.9212
11.1609
11.1191
11.363
11.3174
11.4285
11.1631
11.3243
13.1145
17.4987
10.4655
10.452
10.3924
10.2646
10.2556
10.3967
10.7892
12.745
18.2358
10.4471
10.4554
10.4814
10.5046
10.5116
10.5671
10.983
13.1862
20.1599
8.5487
8.55618
8.57017
8.57703
8.62042
8.80233
9.55941
12.7274
20.8904
13.1085
13.1224
13.134
13.152
13.203
13.3777
14.0587
16.7038
23.2956
6.82379
6.83364
6.84409
6.869
6.95363
7.24562
8.34041
12.1933
20.3974
12.5217
12.5286
12.5346
12.5489
12.5999
12.7638
13.4283
15.9928
22.4201
12.1479
12.1938
12.2026
12.26
12.3654
12.5691
13.3346
16.2387
21.0335
16.2584
16.2527
16.2523
16.257
16.2737
16.3165
16.6225
18.2447
22.1407
16.5581
16.5583
16.5494
16.5265
16.4775
16.4012
16.4015
17.4711
21.4895
14.1795
14.1773
14.1548
14.099
13.9727
13.7094
13.3428
14.1091
19.6986
16.0505
16.0449
16.019
15.9544
15.8078
15.4988
14.9661
14.9598
18.9501
17.2757
17.2761
17.2523
17.1929
17.0593
16.773
16.3041
16.2754
18.5531
14.8622
14.8477
14.8182
14.7523
14.6152
14.3749
14.1238
14.809
17.7637
10.9715
10.9551
10.9195
10.8413
10.6844
10.4316
10.3643
12.0844
17.2608
14.4724
14.454
14.4224
14.3515
14.2053
13.9371
13.6176
14.1726
17.5881
12.1794
12.1647
12.1354
12.0709
11.9447
11.7497
11.7278
13.2947
18.2161
12.9757
12.7549
12.4153
12.7288
12.9753
13.6174
13.7043
13.1068
11.3613
13.5231
12.7039
14.0345
11.9341
14.2862
12.2003
11.4619
10.9369
10.0696
11.836
11.4074
11.7322
11.9606
11.8012
10.6799
10.7714
9.65218
9.65917
10.2057
10.9453
11.827
11.684
12.3394
11.9148
9.83753
9.82419
10.2497
10.3939
10.5948
11.0766
11.0706
13.0435
12.0911
11.2375
12.491
11.9049
10.9628
10.5549
10.9025
12.2208
12.0688
12.0935
13.7215
12.9051
11.6263
11.1775
11.0712
10.3999
10.6228
10.2337
10.7955
9.89942
10.7812
9.08368
8.03791
8.08853
8.88407
10.6995
12.3867
10.7982
11.2577
12.7885
10.8986
9.75921
10.9779
10.1986
10.5162
10.4236
10.5204
12.1183
9.4369
9.76917
11.7921
11.5479
10.2858
9.41088
11.8997
11.1332
13.9009
10.6702
11.5124
12.8526
11.7389
12.1855
10.5258
11.167
8.97954
9.6099
10.7961
10.4348
10.3486
8.53415
9.4417
9.73663
10.1377
8.85354
9.62267
13.0192
10.7095
11.6068
12.1115
10.7092
9.98694
11.1079
10.876
9.50119
10.4546
10.2498
10.2518
9.80797
10.4214
10.1547
10.137
12.1204
11.6709
12.4041
11.8089
11.2809
10.2705
14.1194
12.96
12.2049
11.6926
10.6981
7.95616
8.10203
10.3206
10.6296
9.82413
8.96566
12.9892
14.319
9.43484
10.7499
8.1236
8.93298
11.9322
12.3116
12.8155
13.1479
11.9918
10.1283
11.6015
9.63061
10.1
10.9826
10.4917
9.18269
10.0202
10.6414
11.9445
15.2281
10.813
9.92127
10.1924
10.1311
10.28
11.3941
14.4501
13.4433
12.0416
10.6914
7.45299
8.7561
10.6291
10.4607
11.3895
12.8485
13.3908
12.4794
9.73167
9.17124
9.77901
7.62258
8.99093
11.8216
13.6066
12.4183
12.9429
10.605
10.616
9.77651
9.49211
9.94318
10.033
10.7052
10.5032
12.5288
12.0515
11.6228
10.5624
10.1787
8.35927
8.21034
9.63529
11.7495
12.0195
14.3075
12.9208
13.0585
8.55083
10.5197
10.4296
10.686
14.1484
14.6017
12.9374
11.2352
9.69543
8.73087
9.8907
6.58498
6.25305
10.2741
11.7108
13.5038
12.9249
13.2374
12.2952
9.67785
9.51505
11.2238
11.5664
11.3242
11.7006
12.4088
11.593
10.0408
9.21143
8.4482
10.1969
7.59374
7.27936
9.52009
11.7716
11.6035
11.1306
13.1594
10.6466
11.2756
10.8007
11.9363
16.1415
13.5648
11.3582
12.654
9.25896
8.727
6.98825
8.92668
6.14248
6.50677
11.529
10.162
11.8182
12.2513
14.3185
9.72524
11.1065
12.8484
10.3003
11.822
12.4677
11.2748
11.2079
10.4357
7.24261
6.12622
6.60782
9.7309
6.54015
7.21776
10.1072
11.7246
10.5724
10.8935
10.3982
10.4704
11.789
11.5881
13.0771
11.6706
12.8124
8.83265
10.0295
7.66255
6.25605
6.98378
8.94676
5.39048
7.55094
10.8747
9.07885
9.23935
11.4977
11.4101
12.2794
10.068
11.9078
10.2711
13.2205
9.27801
10.0829
7.11164
5.84961
6.4798
5.4668
6.99464
10.0547
7.15275
8.90914
10.9674
12.7182
11.6201
9.23763
9.95177
10.7641
12.3105
10.2543
11.8373
9.0482
10.1946
8.2846
7.49244
6.97942
6.9098
7.05373
6.64085
6.25587
10.2688
9.33475
8.84303
9.45941
11.5492
10.1646
10.4674
10.4431
10.1564
7.31775
8.02294
6.26588
7.15502
6.2404
5.28572
6.35295
7.86256
8.79154
5.95096
9.15066
9.61389
11.7451
12.9311
8.54965
9.41316
11.2038
9.51718
11.5895
7.17665
9.6386
8.59299
7.49264
7.53452
7.20807
7.32361
6.4164
6.55528
8.63241
9.61227
8.44623
10.7825
9.97011
8.18962
8.78122
10.0219
8.80582
9.29972
7.41997
5.71943
5.63848
4.83905
5.49731
5.86006
5.8656
7.48014
7.94066
8.5045
10.7307
9.17669
10.1673
11.3046
7.67701
9.16183
7.74241
10.6319
6.78731
8.44214
6.49382
7.27881
7.70348
6.85187
7.3675
7.31125
7.45438
7.5318
8.1287
8.87677
8.06379
10.0556
11.9254
7.67182
8.29522
10.2823
7.62788
6.999
4.97431
4.46456
3.6301
5.63333
6.20102
5.49355
6.53603
7.46897
6.04731
8.03182
8.18719
10.2406
9.53559
10.8108
8.72225
6.25593
8.92593
6.00819
7.98581
5.78551
5.90841
5.61357
7.55712
8.1962
6.19721
7.95931
7.19007
7.01748
8.18234
8.95845
9.73008
8.66857
11.2504
6.74229
6.54247
5.90461
7.51183
4.86793
3.76519
4.05287
4.0067
5.22843
5.79074
5.75527
8.21164
9.31424
7.19088
8.00625
8.94382
9.2316
10.0295
10.1342
6.71169
7.32313
5.38994
7.70492
5.01989
5.47565
4.84332
5.68565
6.22903
6.83511
7.40337
6.42612
8.7836
4.83322
7.36263
8.38455
8.5854
9.39409
10.2722
6.02495
5.63923
5.88633
3.78941
4.71311
4.10312
3.33313
4.03655
4.45421
4.26509
6.60185
7.20504
6.74297
8.09899
8.75255
10.268
10.0695
10.2714
10.9409
7.56191
5.09081
5.573
4.14405
4.37132
4.00477
4.17044
4.67866
4.51059
5.54701
6.34949
8.0066
6.39423
7.51966
6.65316
8.35836
8.17465
9.63394
11.5539
5.86673
4.92476
4.55859
3.30804
3.3178
4.01937
3.39435
3.2868
4.70503
5.15676
4.6475
7.80187
7.97623
7.98264
10.6426
10.6894
10.3955
11.2634
11.4851
6.0726
5.72491
4.13499
3.02279
3.57215
3.67711
3.19725
3.35649
4.4116
3.96211
5.74043
6.35841
7.59611
5.64063
7.32639
8.49573
8.92882
9.90311
11.4873
5.86192
4.89819
4.99655
4.00589
2.97488
3.01352
3.25132
3.81435
3.79209
5.24459
6.68878
7.43461
7.94046
8.11814
9.67678
10.2132
10.1557
12.1872
13.7344
6.83964
5.4932
3.9906
3.32046
2.60393
3.12236
2.89542
2.78858
3.11319
4.29548
4.229
6.58327
7.46708
6.7962
7.21422
9.7517
9.95937
10.3633
11.7533
6.04825
6.09242
4.87752
4.91833
3.55173
3.06003
3.16889
3.77263
4.83117
6.02333
7.18396
8.77558
9.52836
9.92213
11.5648
10.7764
10.6449
12.3863
13.5699
6.6406
6.21048
5.13498
3.16782
3.28246
2.37879
2.99513
2.87298
3.16265
4.16806
5.68585
7.1007
8.15018
8.17795
8.79751
10.2848
10.7096
10.9689
11.6245
5.95732
6.51541
6.15217
4.62662
4.69436
3.75564
3.61365
3.87196
5.20992
6.55144
8.2465
9.36186
10.3165
10.8061
11.4676
10.8403
10.8248
12.2422
13.3106
6.1447
6.63994
6.0984
4.62858
2.99928
3.9593
3.24977
3.76297
4.14748
5.37686
6.6002
8.2958
9.13936
9.43832
10.0406
10.965
11.7227
10.6171
11.5631
6.77786
5.95364
6.51882
6.31426
5.64073
4.93465
4.02734
4.28892
5.44689
6.99629
9.37025
10.304
10.8371
10.7752
13.135
10.1989
10.1856
12.3979
13.5337
6.81676
5.81744
6.12523
5.79956
5.12472
4.38433
5.19318
5.00759
6.68339
5.65565
7.81455
9.3854
9.94984
10.2552
10.4997
10.701
10.4212
10.5577
11.4231
20.3727
28.2351
20.8716
17.4271
18.9336
16.2843
14.8536
12.9483
11.6556
9.34357
10.2028
11.0323
13.4775
12.3035
11.985
11.072
11.3983
12.8558
12.7587
22.5593
20.9545
16.8843
14.5354
17.3709
17.3306
14.6501
16.5625
15.0562
12.5018
13.5739
11.6284
15.553
13.8068
11.0121
9.82346
11.1208
10.7083
10.4639
26.4113
24.1281
17.0895
15.9387
19.4635
17.7668
17.3177
14.9464
16.0449
13.8899
10.9351
12.1747
10.5907
10.9548
9.42367
9.57408
10.9663
11.733
12.3608
18.8966
17.7957
14.6936
15.2245
18.1227
15.3333
13.1626
16.1039
17.1061
13.4438
10.3318
10.0221
12.6203
10.8866
8.68147
14.1238
10.7172
10.0045
10.1275
20.1882
25.7514
18.3763
17.069
15.756
12.9874
17.9095
10.4481
17.5489
15.7936
14.8844
11.4777
13.4421
11.1134
9.5581
11.0878
10.3979
10.9868
12.0053
18.5336
17.1659
15.7002
14.9403
14.3748
14.6655
13.5647
13.9858
14.4962
14.4894
17.8502
10.5391
12.0455
12.0503
9.91034
11.8003
10.9973
11.1401
9.26857
24.3588
21.6562
14.7428
15.1365
16.6395
15.6575
12.9137
14.6414
13.963
11.8074
12.4545
12.3916
12.0934
11.555
10.7958
11.3201
10.5514
12.2845
11.9834
18.5425
17.2699
15.7549
14.037
14.1006
14.9148
13.5346
12.7691
12.305
13.2117
12.7449
12.2181
12.2184
9.37482
10.4577
11.974
11.964
13.8603
9.21321
20.0959
22.0508
16.6361
16.2393
15.8265
14.1208
12.6371
13.392
14.6307
12.5799
13.2876
14.9457
11.5598
8.80332
9.9588
10.591
10.4953
9.63108
9.96814
19.5025
17.4049
15.6863
14.7127
14.3512
13.9366
13.1181
12.8624
11.973
12.4066
13.3348
14.6145
12.2259
9.40201
11.2857
12.6205
11.7474
10.2845
8.31754
15.8419
27.4711
19.0066
17.9058
16.5275
15.2048
15.7587
14.4958
14.258
13.2789
14.0404
13.7243
10.4271
12.7826
9.2846
14.2427
9.77396
7.92985
9.19845
17.0414
17.6212
14.8514
15.1725
14.312
13.5172
12.7886
12.8698
12.389
11.8706
14.2964
14.6269
10.48
10.8289
10.7935
14.7194
10.4438
7.11874
7.51275
26.4344
21.9062
17.6354
18.7246
17.0704
15.6725
14.4697
15.1322
15.424
13.9641
12.9884
11.9169
12.1231
11.5363
12.5663
10.434
6.98716
7.32074
8.60808
18.3481
16.4353
14.1031
14.758
14.359
13.78
13.4592
13.0022
13.1188
13.1584
13.8019
11.6383
10.9522
10.2407
12.8428
12.3398
6.4842
7.45263
7.74406
22.5099
20.6561
18.0159
19.8256
16.3207
15.2762
16.1734
14.9869
14.9378
13.3674
15.0843
14.6569
13.0769
13.2854
12.3391
8.1141
7.31282
7.12665
8.36859
18.2432
16.5565
13.8749
14.2651
15.0898
14.3431
13.675
14.3061
13.2208
12.7562
12.6811
14.377
10.8457
11.3743
13.1087
8.93357
7.49514
8.20636
8.77443
23.7312
19.2491
17.8223
18.473
17.9236
16.2888
15.9717
16.3794
13.0012
12.1952
15.2185
14.4493
13.1638
12.0153
10.5119
9.00264
8.51396
8.62269
9.67151
19.6859
16.0379
14.6662
14.2791
15.1353
14.7848
14.2195
13.7438
13.8119
13.8564
13.448
12.8763
10.3316
11.441
10.2869
7.94618
8.7373
9.5168
9.35599
23.0809
20.8533
16.2988
20.93
18.7336
18.1597
20.6556
16.8573
16.7969
14.348
17.1607
13.9649
15.5764
13.48
10.944
10.9635
9.70296
9.61732
10.203
20.0665
16.6504
15.3363
15.5328
14.625
15.4263
15.7036
15.1144
13.9481
13.375
13.4628
12.1882
13.1332
11.3929
11.1539
8.13717
10.2575
10.5743
9.29534
25.2571
21.167
17.3809
17.6951
19.6653
18.7468
17.6892
19.1904
16.122
15.5996
15.1597
13.355
13.1391
12.3553
9.29937
11.2472
10.9145
10.1491
9.58305
21.9677
16.961
16.3225
16.2299
15.5851
16.5984
16.3236
15.8187
14.7803
14.0772
13.118
11.8257
11.1946
11.2672
8.60908
9.42333
10.4269
10.6942
9.81612
25.9793
24.3689
21.8527
17.9946
22.2885
20.2568
18.8743
18.4564
16.1368
12.7854
16.1631
13.8509
14.7896
12.2988
9.31431
10.8326
11.255
9.28987
7.32931
24.4701
19.2627
18.2713
19.0425
17.7574
19.0312
17.0442
16.05
14.8961
14.115
12.7145
11.8329
13.7196
11.6674
9.36894
10.2293
10.5537
9.84256
7.50115
30.0408
29.3065
28.9453
25.8202
24.5878
23.4373
22.774
20.5708
16.1221
16.269
16.2766
13.1602
12.6135
11.4645
9.73438
9.69578
9.8784
8.45292
6.89573
28.5181
22.8577
20.8593
22.2961
20.2432
19.2524
19.2617
17.7038
15.6191
13.3783
13.4745
13.0849
13.7942
11.8535
8.0883
9.18916
9.89777
9.77319
8.27239
41.688
35.2537
33.1236
35.7064
27.762
28.9886
24.4875
21.6946
20.1745
19.7204
18.5397
11.6223
10.6004
12.2596
10.78
9.97914
10.1332
9.2005
7.10158
31.6702
25.2052
24.6753
22.5401
22.1229
20.8881
21.0388
19.0532
15.5399
13.9064
14.5882
12.3713
11.7359
10.5124
9.36416
9.40645
9.02891
9.31269
8.13825
38.2622
42.8813
38.6999
41.9266
32.5622
32.5874
26.8161
23.4178
21.6308
18.0891
18.0353
12.1346
10.716
11.7189
11.1599
10.9853
10.1503
9.33724
7.28826
28.8461
25.554
26.9641
27.4161
26.1295
23.9411
22.0298
19.2863
16.5629
14.9481
14.6923
11.6918
12.019
10.1463
10.0645
8.44595
9.67613
9.24986
8.18754
33.4798
38.4934
42.3798
41.8703
38.3413
29.1569
29.47
23.4155
22.5767
17.7092
15.9818
13.3859
12.1905
10.2923
10.1109
10.1148
9.74707
8.6031
6.98153
29.7316
19.4099
27.2883
30.5017
28.7247
26.7733
24.1126
20.7988
18.4982
15.8077
15.0285
12.8261
12.6723
11.2483
9.33703
8.66243
9.34224
9.09068
7.88101
36.0731
43.9521
42.182
43.5814
37.5778
35.3508
33.4366
27.7946
21.5812
19.2503
16.7456
14.5042
11.9786
10.2823
9.70774
9.84372
9.56802
8.24802
6.76554
32.2842
21.9503
29.0341
30.7458
30.6034
29.6091
26.1195
22.4303
18.9107
16.63
16.2221
13.8105
12.8643
12.6353
10.5946
8.18304
9.12234
8.47094
7.60699
26.9744
31.501
38.6787
37.1228
36.5398
35.3863
33.3795
30.3673
25.9259
21.0635
19.215
16.7416
12.1061
12.9699
11.4445
9.73664
9.54333
8.73381
7.30792
35.5835
23.2977
17.753
25.3645
28.6779
28.0479
26.451
24.6806
22.0935
17.7104
17.4856
14.4992
12.8678
13.0878
11.612
7.40799
8.21913
8.691
7.6378
34.1119
23.5056
31.8164
30.2711
34.899
26.4581
29.3479
36.4068
29.0067
23.3193
19.5658
17.0013
13.3076
11.8351
13.3439
10.0609
9.13067
9.96445
8.27515
37.9175
21.1607
16.6615
20.3382
24.8637
24.636
25.895
26.0466
24.0013
20.0134
18.1363
16.2299
12.9389
12.0813
12.811
7.74934
6.35374
7.88669
7.78539
23.8087
24.4336
19.4417
21.2357
22.2238
13.1381
12.2669
10.7815
8.96603
9.49846
9.75481
10.2411
11.3273
13.8838
14.4297
12.4486
10.454
12.447
12.3212
17.4753
42.6076
24.1911
23.1147
16.4389
11.6471
10.7054
7.81963
6.03772
7.94231
9.63126
10.5354
11.5852
13.3718
13.8728
12.6611
11.6908
12.0632
13.348
34.1581
43.623
23.3704
17.5365
11.6769
6.65955
4.06878
7.43114
8.03334
10.3439
10.5235
11.1751
13.0637
13.971
13.3651
12.4192
12.3349
12.9668
13.2741
37.8527
27.9941
17.578
12.978
8.26235
5.17829
5.13142
5.41539
5.35485
8.3146
10.1377
10.8692
12.5695
14.4254
14.0736
12.5159
12.8085
12.8989
14.0768
40.8346
26.4573
13.4153
8.32589
5.76335
3.10115
3.89135
4.14815
6.03927
8.66078
11.3363
11.0161
12.429
14.6052
14.6256
12.417
12.393
14.0859
13.6767
44.0577
24.2611
14.5924
7.48589
4.57583
2.24975
5.367
3.32809
5.64012
9.06673
12.258
11.5478
13.4459
14.4549
14.7584
13.0251
14.0184
12.9208
14.0117
43.0365
22.9587
7.61237
2.71517
7.66783
6.67207
4.71576
6.05927
9.15922
9.41086
12.5481
12.1354
13.8226
14.9803
13.777
14.1109
13.6964
13.8603
14.413
43.297
18.8596
6.22851
8.27191
5.22114
6.10399
6.23377
9.54106
8.23276
13.6856
11.8378
13.2122
14.0534
16.7439
15.8151
14.3692
14.7652
14.7444
16.482
44.0918
20.0508
5.21437
6.51667
5.8283
7.64673
10.0428
9.41605
10.1761
14.0888
15.6389
12.3547
15.1456
16.441
18.3412
15.9187
16.35
15.6044
12.3939
47.6356
18.662
8.62721
10.6423
10.7201
11.4715
9.59996
12.9798
13.906
14.0329
15.715
17.0424
20.8281
20.608
18.674
19.3126
19.1175
13.6093
16.5814
36.6278
20.702
10.473
9.76352
8.86854
9.66011
14.6589
15.9928
14.711
17.5062
19.9096
20.6357
20.5766
18.2078
20.2092
17.7537
16.1364
14.7637
11.5203
37.8181
18.4351
16.9164
15.0445
9.22064
15.2691
13.8314
22.0622
20.2738
19.9615
20.6179
20.6541
19.4322
17.6457
18.5191
18.4328
13.6357
14.8176
15.9242
33.2858
22.5527
23.876
22.8921
22.4042
27.3997
30.8418
33.7584
21.8638
20.9421
20.0876
18.3833
17.0872
20.449
14.204
14.448
15.637
12.8098
15.2555
35.1227
24.6567
26.8948
34.2147
34.7964
23.9033
33.5635
24.1825
20.9768
21.0972
18.4038
18.0612
14.6671
14.5006
13.8083
12.9966
14.1036
12.9437
13.5903
42.1498
25.2482
30.127
40.439
37.7832
31.5767
29.6982
21.816
19.8197
19.7017
17.2876
16.9189
14.544
12.3082
12.4285
12.0277
12.8495
12.1042
11.8503
26.8131
26.0491
24.8336
31.3832
34.2555
32.7261
27.7106
25.2281
22.7295
20.699
18.305
16.0998
13.6335
13.57
12.605
12.1131
11.9199
11.7109
11.2915
35.2535
24.9472
24.4527
26.6833
33.1307
29.2044
29.3711
28.5446
24.3335
22.3285
20.9422
18.2767
15.6379
13.9006
12.6427
11.4048
11.2074
11.4545
10.8196
26.2259
26.2225
21.2727
26.2378
29.3665
25.9146
31.1818
31.3629
26.6078
24.7173
23.0781
20.5256
18.1598
15.2821
14.1718
11.4637
10.7415
10.3697
10.867
27.9211
26.9343
19.7634
18.097
20.2569
22.5553
28.3907
31.0005
29.3553
26.8309
25.7628
22.6438
19.9183
17.3807
14.8969
13.4379
10.82
10.1299
10.1489
24.6532
20.7569
17.7508
16.6695
20.0018
18.91
16.4287
18.6839
15.6044
14.0144
12.3726
11.6884
13.1586
12.9946
12.0332
11.0027
10.5758
10.6826
10.8053
23.6419
28.8562
21.8937
18.8724
17.5672
18.1268
16.6823
16.1127
12.0844
11.6145
11.4545
10.5864
13.5288
13.4434
12.3533
10.8578
11.7975
9.4638
11.9976
30.9017
28.8524
22.684
17.9064
17.5336
13.3712
10.1311
11.0255
12.0927
11.44
10.551
10.494
13.5733
13.8238
11.9861
10.8635
12.6761
10.992
10.9011
31.5838
31.4242
23.4484
16.8908
16.0634
9.01308
4.71756
8.95813
12.5368
11.0375
10.6391
10.5107
14.738
14.5799
12.1466
13.3931
13.7447
12.1813
12.6829
35.7457
33.089
23.2735
16.4661
10.3121
8.40091
7.72486
4.89804
14.0271
10.8805
10.3894
12.7808
13.3362
13.8096
12.9524
13.4475
13.3271
12.7894
12.1465
38.9689
32.5674
25.2674
15.0803
10.303
3.30089
4.96325
10.5788
13.5927
15.9554
12.4847
12.6653
13.5788
14.6696
14.6514
13.4724
14.6169
13.4945
13.6883
40.0118
32.028
20.8475
12.9499
9.15025
7.04126
7.06343
10.7628
11.0348
10.8528
12.5889
14.0163
15.1925
16.4521
16.43
15.8031
15.4821
14.3078
12.6496
38.1244
30.3022
19.0669
10.014
7.78861
5.87097
6.82033
9.79007
17.1879
14.5035
16.3206
14.6504
16.6692
19.482
21.0514
16.856
15.2433
12.9842
11.8632
38.4366
29.1044
16.3591
8.95339
7.14568
6.56231
11.9676
14.4614
20.7991
17.4728
19.11
19.4839
21.0841
16.6243
18.7878
17.3318
13.4176
15.2119
11.6605
39.193
28.0776
15.5467
6.72445
9.16003
10.3456
10.6118
18.3877
18.7348
20.5929
22.1907
20.0573
19.6593
19.8628
17.9679
17.2708
15.5224
10.2755
11.4907
37.6296
25.2337
13.0848
7.75204
11.862
13.3982
19.3778
21.091
24.905
23.2985
21.9427
18.7967
20.5061
17.3552
15.4138
14.0977
14.1496
13.2108
11.5215
36.2782
22.9385
13.9172
13.2666
16.7727
17.9152
19.5655
20.5738
24.5736
23.688
19.856
18.8528
20.3851
14.8427
12.1951
15.6124
11.2668
12.5703
12.1379
33.2912
22.8211
12.9156
23.458
19.4523
18.6587
22.4961
22.6713
25.5717
25.5074
19.0984
16.6608
14.1816
13.2736
11.7744
11.8908
11.6768
10.8029
12.2719
31.3496
18.2309
14.9842
21.9403
22.4446
22.4516
20.4112
27.4234
25.557
20.2209
16.8973
14.2706
12.7095
11.2644
11.3335
10.4333
10.897
9.04913
10.9
31.2855
19.1206
14.3087
21.2653
24.4652
23.1281
21.4371
23.9988
21.9848
18.5572
16.4265
14.0922
11.7966
11.5351
11.0851
10.2627
10.879
10.3959
9.5042
28.0664
20.4176
13.4235
18.1871
23.0478
23.4155
23.6303
21.9953
19.9856
19.7724
18.3806
16.8311
13.4473
11.4034
10.8381
10.214
10.9858
10.6167
10.1915
24.7199
23.0015
14.9334
14.086
20.5428
23.4203
23.869
23.2445
23.0201
21.3848
19.6316
18.4752
15.5536
11.7702
11.344
10.2903
10.5918
10.5811
10.6781
27.9942
23.412
14.2039
13.034
19.4662
20.8542
23.2109
25.1072
24.0631
23.8997
22.7944
19.2617
17.385
13.692
11.8023
10.8391
10.3874
10.5914
10.7992
29.0098
24.569
15.1775
11.4718
16.1702
18.6353
21.889
24.5338
25.2576
24.8221
24.8717
21.7556
18.3131
16.2287
14.4872
12.2744
10.7993
11.3418
11.4478
31.0102
27.8205
20.3572
21.9847
26.7172
23.0047
25.7076
29.9056
30.5908
27.9163
26.9256
23.4537
20.0468
17.8061
14.8605
11.0559
9.69863
9.56201
9.98789
30.8648
24.6586
15.7772
11.3421
16.1046
17.0638
20.2461
23.4113
26.211
26.3206
26.4124
23.171
18.7419
16.85
14.8916
12.9385
11.4763
10.7083
11.1573
31.9709
28.6183
20.7672
22.4228
26.2707
22.5864
28.4558
32.8193
29.6545
27.6345
25.2831
23.2025
19.8543
15.5442
13.8741
10.7498
9.76225
9.01953
10.0062
30.6636
22.4929
14.9987
12.2235
16.0789
17.9583
20.8658
25.8378
26.8709
26.7872
25.5028
22.0137
18.985
14.6463
12.3971
10.7364
10.0739
10.3518
10.8586
33.8763
29.7379
20.3568
24.0951
26.2664
30.3319
26.5466
32.7661
27.979
25.4064
23.8841
21.2783
17.4449
14.7967
12.6109
10.135
9.47851
10.2382
10.2628
29.8697
22.9454
16.3516
14.5743
16.222
18.2534
22.243
27.2301
27.2654
25.8083
24.1567
20.7817
17.508
13.6988
13.1889
11.0614
10.8383
10.595
11.5155
36.6709
25.6704
25.285
27.4564
28.3638
35.1341
34.8876
28.1986
26.0691
24.8473
21.5176
19.5177
16.1322
14.6006
11.6596
10.3449
10.1244
10.9858
10.9524
30.2782
22.9767
14.2369
15.6496
17.775
21.7504
25.8605
25.1708
24.365
23.4307
22.2772
20.0733
15.1208
13.7433
11.9142
10.8969
10.5016
11.1406
11.91
29.4936
26.6286
27.7275
33.5827
34.0612
35.6571
30.8765
24.6604
23.5109
21.2804
20.1955
17.6682
16.2664
13.5984
12.2752
11.083
11.7676
11.6869
10.8261
28.6951
20.1703
14.8083
18.9749
22.1253
23.8691
24.2927
23.7757
22.1509
20.4175
19.9759
16.6933
14.5822
13.2977
11.5747
11.2029
11.0861
12.3236
11.7494
35.8567
33.8749
31.8344
36.1035
34.933
33.1848
30.7669
21.0154
18.9964
19.5162
18.0188
17.2845
14.6493
13.7484
12.9868
13.6413
12.5116
11.4365
11.6512
27.5567
19.9178
16.6222
22.5387
25.7377
24.5134
21.9407
24.8896
22.8855
19.17
18.4055
14.8455
14.5742
12.333
11.9918
11.8452
13.0772
12.6489
11.7935
38.0947
32.2681
39.6535
38.9579
36.1994
31.0869
27.316
20.7996
18.5014
17.9075
16.1611
17.2177
15.1132
14.257
13.8854
16.2511
13.417
12.4718
14.0455
29.0656
19.5686
21.2872
22.8866
25.2471
23.6474
21.6414
22.9025
20.7485
18.2526
16.5709
15.2254
14.7481
12.3107
12.1346
13.0959
12.7876
12.0637
12.7207
35.5824
33.7851
34.4349
34.4957
26.8129
21.2016
18.8923
22.8763
20.7334
18.4185
19.899
15.7111
17.8674
14.4084
16.1327
16.899
12.1708
15.2875
12.9677
33.5829
25.7107
19.5994
21.0134
21.5139
20.928
20.1698
19.3753
18.8504
17.374
16.5678
14.6998
14.9762
13.4319
14.1065
15.1744
12.2463
13.3068
13.4776
27.672
19.8703
15.0028
15.3324
25.6367
19.2261
21.8929
18.9838
18.4679
18.6628
20.3173
18.7243
15.3049
16.3612
18.4079
15.4476
16.2144
14.3082
13.4646
29.2875
21.6462
15.1443
16.8297
19.2786
19.5934
21.3514
20.345
20.0124
18.0562
16.8494
16.0294
15.5479
15.2068
15.9875
13.5264
13.0861
12.9764
12.0116
35.6034
15.0361
9.54147
9.89758
11.3937
18.2824
20.1098
18.8622
20.6705
18.7994
18.8721
19.3925
17.4243
19.1436
19.4958
15.9704
17.2169
15.9628
12.9107
27.3126
23.2667
14.7332
11.963
16.3136
18.0614
18.5356
18.4428
18.3255
18.1176
17.3631
17.5056
17.1269
16.535
16.6313
13.4106
14.3381
13.769
11.8353
30.136
17.7631
6.12107
4.08363
10.3613
13.5149
16.5819
16.1755
16.7734
17.0732
16.946
18.695
18.1011
17.6596
16.7135
17.9022
17.7121
14.1838
14.0725
28.4873
24.9678
13.8127
10.4904
12.7005
15.6003
17.3124
19.5601
19.0851
16.9965
17.7816
19.1033
16.564
17.5527
16.44
15.7752
16.1972
15.9546
12.4677
36.9649
17.5918
11.1051
7.37522
9.40455
11.9849
13.3483
15.4011
14.7738
14.7957
14.4749
16.3839
16.9317
16.0492
14.5143
16.2662
16.5879
15.2592
11.8858
33.2846
25.9796
14.9061
8.97319
10.5832
12.9451
14.5204
16.412
20.0489
20.8492
17.9389
17.9631
16.4423
15.6887
16.4777
17.2697
15.5639
16.8021
13.1634
40.3948
25.4227
10.3198
10.0903
8.01332
8.50994
10.7267
14.1829
15.3434
15.0806
15.8466
16.524
16.6926
14.569
13.1789
14.245
14.8909
14.3173
12.4854
33.3491
27.0565
17.0702
9.13137
9.02532
9.10188
12.1141
14.2021
15.6835
15.9084
15.7882
18.2709
18.4047
15.4811
15.5215
17.5761
15.9288
14.6799
13.3088
39.2302
26.5589
12.5017
10.1616
8.968
8.90659
10.6893
13.6141
14.8519
15.1717
15.5275
14.1293
15.1175
14.4771
13.5224
13.9875
14.5933
14.1789
12.7052
31.2525
27.787
19.2554
10.2271
8.30851
9.43566
10.9112
16.4736
14.1971
14.7895
14.9873
15.2248
15.3547
14.2765
14.1129
16.0393
16.141
15.0791
13.2598
45.203
27
15.4961
7.98789
6.89334
7.8751
8.01958
10.5969
12.6078
15.08
15.0309
14.9967
16.0056
15.9477
13.8478
13.1469
14.2198
14.4008
12.6821
34.2599
27.2458
18.8788
12.1142
6.69157
7.47277
8.80579
10.1807
13.1306
13.4633
13.4245
15.984
15.572
13.0829
12.6162
15.2327
15.4683
15.0639
13.4405
33.3605
45.2712
18.7259
7.405
6.85192
8.67047
10.2339
10.4172
11.7265
14.739
14.2699
14.4444
16.1975
15.3607
13.5798
12.7361
13.6058
14.9776
14.4021
35.8364
30.0917
18.3721
10.2475
5.92994
7.81599
9.91466
11.0624
12.4731
13.8598
13.5277
15.0141
15.3358
13.1336
11.8115
13.2897
14.4846
13.9788
12.9561
41.5325
39.775
15.5374
9.26905
10.1827
8.98675
9.97854
11.7692
13.0578
14.2433
13.5183
13.9535
16.7861
16.1466
14.3705
12.6912
12.7054
14.2321
14.3743
36.699
28.2388
16.5883
8.10034
6.90932
11.177
10.7214
11.568
12.4879
14.9834
14.9528
14.3237
14.9358
14.7782
10.639
11.3286
12.8363
12.1134
12.3494
42.0458
34.3697
16.3404
12.5546
10.9622
12.1251
10.7994
10.5121
14.628
14.7776
13.9364
13.083
14.5652
15.2667
15.1735
13.5129
12.7075
12.9144
13.7349
36.1172
23.5447
16.0295
10.0662
12.7653
15.4152
11.911
12.3891
12.2905
14.3631
14.4563
13.5943
14.7383
14.3495
12.773
10.6787
12.7438
13.0247
11.8165
40.0497
29.1355
15.8293
7.7401
8.09739
10.5877
12.4365
12.4817
13.0376
13.3768
13.1516
13.468
13.7251
15.8116
14.5471
12.1735
12.2766
13.183
13.9248
30.5743
24.1046
18.3476
12.8622
12.9301
12.0426
16.358
15.1035
13.0688
15.1776
14.6314
14.492
15.8063
15.6673
11.5266
9.52442
11.4042
11.9305
11.9103
10.4305
10.4304
10.4115
10.3727
10.3224
10.3728
11.1631
14.9754
25.5598
10.2911
10.2774
10.2518
10.1974
10.0999
9.99527
10.2705
12.5577
18.2615
5.43966
5.4342
5.41456
5.38359
5.38377
5.68926
7.41935
13.0679
44.6558
10.9185
10.9054
10.8823
10.8335
10.7477
10.6616
10.948
13.1579
25.7929
14.9561
14.9572
14.9414
14.9113
14.8697
14.904
15.5327
18.7846
41.9372
8.21749
8.20484
8.17527
8.11075
7.99518
7.88305
8.30533
11.2128
25.2217
12.8705
12.8664
12.8504
12.8191
12.7764
12.8137
13.4834
16.9279
37.2201
12.4977
12.486
12.4608
12.4042
12.2931
12.1242
12.1365
13.7009
25.5844
21.4705
21.4653
21.4461
21.4022
21.3174
21.1895
21.1981
22.4434
40.219
15.713
15.6968
15.6755
15.6299
15.5353
15.3629
15.1853
15.7633
24.0216
18.8987
18.8986
18.8859
18.8542
18.794
18.7242
18.8948
20.6655
37.8052
17.1118
17.1136
17.0997
17.0593
16.9717
16.8121
16.6665
17.2843
24.2105
40.2423
40.2436
40.2195
40.1445
39.9798
39.6618
39.1772
39.1897
49.253
19.3976
19.4367
19.4372
19.4019