/*--------------------------------*- C++ -*----------------------------------*\
| =========                 |                                                 |
| \\      /  F ield         | foam-extend: Open Source CFD                    |
|  \\    /   O peration     | Version:     3.1                                |
|   \\  /    A nd           | Web:         http://www.extend-project.de       |
|    \\/     M anipulation  |                                                 |
\*---------------------------------------------------------------------------*/
FoamFile
{
    version     2.0;
    format      ascii;
    class       volVectorField;
    location    "345600";
    object      DU;
}
// * * * * * * * * * * * * * * * * * * * * * * * * * * * * * * * * * * * * * //

dimensions      [0 1 0 0 0 0 0];

internalField   uniform (0 0 0); 

boundaryField
{
    OUTER
    {
        type            fixedValue;
        value           nonuniform List<vector> 
3830
(
( -2.488476e-08 1.692258e-07 -4.856455e-08) 
( -2.877719e-08 1.644231e-07 -3.909172e-08) 
( -2.961751e-08 1.636302e-07 -3.899900e-08) 
( -2.816637e-08 1.568923e-07 -3.363067e-08) 
( -2.812863e-08 1.510431e-07 -2.928871e-08) 
( -2.736480e-08 1.441112e-07 -2.343451e-08) 
( -2.849381e-08 1.350532e-07 -1.767164e-08) 
( -2.924989e-08 1.259443e-07 -1.280375e-08) 
( -2.884640e-08 1.198264e-07 -9.146698e-09) 
( -2.966807e-08 1.120653e-07 -6.575113e-09) 
( -3.167536e-08 1.048885e-07 -4.720154e-09) 
( -3.433994e-08 9.671884e-08 -7.993509e-10) 
( -3.433994e-08 9.671884e-08 -7.993509e-10) 
( -3.313138e-08 9.174143e-08 2.692237e-10) 
( -3.342846e-08 8.807354e-08 7.118700e-10) 
( -3.427926e-08 8.623144e-08 1.189939e-09) 
( -3.651525e-08 8.552780e-08 1.627868e-09) 
( -3.936519e-08 8.571884e-08 1.882574e-09) 
( -4.002062e-08 8.664682e-08 2.277448e-09) 
( -2.663686e-08 1.639450e-07 -4.307301e-08) 
( -2.824592e-08 1.614853e-07 -3.861727e-08) 
( -2.932768e-08 1.576241e-07 -3.449999e-08) 
( -2.983960e-08 1.520098e-07 -2.939641e-08) 
( -2.749533e-08 1.476625e-07 -2.609283e-08) 
( -2.759556e-08 1.408572e-07 -2.070913e-08) 
( -2.642356e-08 1.382425e-07 -1.846879e-08) 
( -2.828425e-08 1.258292e-07 -1.151929e-08) 
( -2.884640e-08 1.198264e-07 -9.146698e-09) 
( -2.841673e-08 1.137936e-07 -5.847962e-09) 
( -2.858665e-08 1.061723e-07 -4.668711e-09) 
( -3.155956e-08 9.965165e-08 -1.108660e-09) 
( -3.351409e-08 9.442797e-08 3.921352e-11) 
( -3.351409e-08 9.442797e-08 3.921352e-11) 
( -3.322521e-08 9.049307e-08 9.879073e-10) 
( -3.339458e-08 8.744189e-08 1.204143e-09) 
( -3.532809e-08 8.552401e-08 1.438509e-09) 
( -3.532809e-08 8.552401e-08 1.438509e-09) 
( -4.000349e-08 8.592788e-08 2.593139e-09) 
( -2.211410e-08 1.591213e-07 -3.579047e-08) 
( -2.290610e-08 1.551849e-07 -3.188954e-08) 
( -2.289102e-08 1.526476e-07 -3.231601e-08) 
( -2.704112e-08 1.472844e-07 -2.421522e-08) 
( -2.445290e-08 1.428360e-07 -2.049976e-08) 
( -2.674554e-08 1.363372e-07 -1.666600e-08) 
( -2.278580e-08 1.301617e-07 -1.079173e-08) 
( -2.583240e-08 1.239343e-07 -1.242102e-08) 
( -2.813342e-08 1.169746e-07 -6.751346e-09) 
( -2.741689e-08 1.072891e-07 -2.281859e-09) 
( -2.741689e-08 1.072891e-07 -2.281859e-09) 
( -2.855740e-08 1.007304e-07 -8.663603e-10) 
( -3.063185e-08 9.678388e-08 3.148301e-11) 
( -3.323802e-08 9.274347e-08 7.363279e-10) 
( -3.323802e-08 9.274347e-08 7.363279e-10) 
( -3.347895e-08 9.021141e-08 1.391906e-09) 
( -3.367085e-08 8.673864e-08 1.389437e-09) 
( -3.594993e-08 8.552272e-08 2.321016e-09) 
( -3.594993e-08 8.552272e-08 2.321016e-09) 
( -1.556884e-08 1.519477e-07 -3.170125e-08) 
( -1.744050e-08 1.485208e-07 -2.562246e-08) 
( -2.063567e-08 1.450605e-07 -2.042980e-08) 
( -2.216395e-08 1.467473e-07 -2.207419e-08) 
( -2.094193e-08 1.387485e-07 -1.592316e-08) 
( -2.201973e-08 1.335691e-07 -1.277704e-08) 
( -2.278580e-08 1.301617e-07 -1.079173e-08) 
( -2.034621e-08 1.225023e-07 -8.168406e-09) 
( -2.515782e-08 1.185361e-07 -1.289689e-08) 
( -2.708335e-08 1.107697e-07 -2.728667e-09) 
( -2.681725e-08 1.037723e-07 -3.361128e-10) 
( -2.681725e-08 1.037723e-07 -3.361128e-10) 
( -2.752764e-08 9.726192e-08 9.014830e-10) 
( -3.052224e-08 9.462892e-08 8.407806e-10) 
( -3.335380e-08 9.202486e-08 1.002214e-09) 
( -3.335380e-08 9.202486e-08 1.002214e-09) 
( -3.349139e-08 8.983076e-08 1.827900e-09) 
( -3.377912e-08 8.726987e-08 2.070304e-09) 
( -3.661562e-08 8.637727e-08 2.761036e-09) 
( -1.230112e-08 1.448567e-07 -2.472515e-08) 
( -1.357113e-08 1.404856e-07 -2.007330e-08) 
( -1.410877e-08 1.333206e-07 -1.483128e-08) 
( -1.723757e-08 1.358881e-07 -1.478224e-08) 
( -1.883016e-08 1.325054e-07 -1.152554e-08) 
( -1.883016e-08 1.325054e-07 -1.152554e-08) 
( -1.777546e-08 1.247072e-07 -7.263814e-09) 
( -2.034621e-08 1.225023e-07 -8.168406e-09) 
( -1.864249e-08 1.156345e-07 -2.773850e-09) 
( -2.207917e-08 1.093568e-07 -6.487228e-12) 
( -2.593479e-08 1.070814e-07 -5.574427e-10) 
( -2.661097e-08 1.013611e-07 9.120000e-10) 
( -2.661097e-08 1.013611e-07 9.120000e-10) 
( -2.707368e-08 9.594951e-08 1.377326e-09) 
( -2.999873e-08 9.343721e-08 1.129942e-09) 
( -3.364972e-08 9.128686e-08 2.335860e-09) 
( -3.364972e-08 9.128686e-08 2.335860e-09) 
( -3.356474e-08 9.011479e-08 2.575923e-09) 
( -3.435467e-08 8.783333e-08 2.861550e-09) 
( -9.886512e-09 1.378031e-07 -2.018480e-08) 
( -1.092217e-08 1.303821e-07 -1.397211e-08) 
( -1.410877e-08 1.333206e-07 -1.483128e-08) 
( -1.331662e-08 1.276151e-07 -9.018628e-09) 
( -1.681995e-08 1.307681e-07 -1.111536e-08) 
( -1.598146e-08 1.265065e-07 -5.823710e-09) 
( -1.838711e-08 1.265449e-07 -7.029450e-09) 
( -1.685597e-08 1.188358e-07 -2.490486e-09) 
( -1.788979e-08 1.120464e-07 -5.816919e-11) 
( -1.788979e-08 1.120464e-07 -5.816919e-11) 
( -2.100572e-08 1.075041e-07 8.809567e-10) 
( -2.486102e-08 1.049693e-07 5.523834e-10) 
( -2.594609e-08 1.004961e-07 1.376639e-09) 
( -2.594609e-08 1.004961e-07 1.376639e-09) 
( -2.649935e-08 9.506657e-08 2.816141e-09) 
( -2.950235e-08 9.243347e-08 2.419004e-09) 
( -3.350513e-08 9.171049e-08 3.286216e-09) 
( -3.350513e-08 9.171049e-08 3.286216e-09) 
( -3.382754e-08 9.085068e-08 3.550780e-09) 
( -7.309969e-09 1.283934e-07 -1.371774e-08) 
( -7.309969e-09 1.283934e-07 -1.371774e-08) 
( -9.968781e-09 1.250367e-07 -7.799952e-09) 
( -1.331662e-08 1.276151e-07 -9.018628e-09) 
( -1.122093e-08 1.242031e-07 -4.662215e-09) 
( -1.598146e-08 1.265065e-07 -5.823710e-09) 
( -1.437138e-08 1.230719e-07 -1.531730e-09) 
( -1.620810e-08 1.199877e-07 3.011628e-10) 
( -1.703623e-08 1.157559e-07 4.981808e-11) 
( -1.735267e-08 1.104731e-07 1.065175e-09) 
( -1.841597e-08 1.094412e-07 1.126971e-09) 
( -2.066235e-08 1.068784e-07 1.059036e-09) 
( -2.495401e-08 1.036695e-07 1.673530e-09) 
( -2.545362e-08 9.978310e-08 2.845927e-09) 
( -2.545362e-08 9.978310e-08 2.845927e-09) 
( -2.609111e-08 9.545373e-08 3.819592e-09) 
( -2.941253e-08 9.265494e-08 3.451654e-09) 
( -3.346628e-08 9.290372e-08 4.552726e-09) 
( -3.346628e-08 9.290372e-08 4.552726e-09) 
( -5.169020e-09 1.269806e-07 -1.286476e-08) 
( -6.985371e-09 1.233160e-07 -7.417691e-09) 
( -6.985371e-09 1.233160e-07 -7.417691e-09) 
( -8.767552e-09 1.223399e-07 -4.080672e-09) 
( -8.767552e-09 1.223399e-07 -4.080672e-09) 
( -1.004547e-08 1.222027e-07 -1.688504e-09) 
( -1.398417e-08 1.219087e-07 -9.507598e-12) 
( -1.398417e-08 1.219087e-07 -9.507598e-12) 
( -1.584735e-08 1.193818e-07 1.254660e-09) 
( -1.758708e-08 1.143356e-07 1.356477e-09) 
( -1.753051e-08 1.117807e-07 1.523756e-09) 
( -1.809631e-08 1.089428e-07 1.826332e-09) 
( -2.012145e-08 1.062474e-07 2.304520e-09) 
( -2.470426e-08 1.033184e-07 3.045391e-09) 
( -2.460518e-08 1.006696e-07 3.872851e-09) 
( -2.460518e-08 1.006696e-07 3.872851e-09) 
( -2.598007e-08 9.678807e-08 4.970163e-09) 
( -2.947748e-08 9.385258e-08 4.810197e-09) 
( -3.376478e-08 9.547812e-08 5.985291e-09) 
( -5.352283e-09 1.222219e-07 -7.347617e-09) 
( -5.352283e-09 1.222219e-07 -7.347617e-09) 
( -6.604129e-09 1.211113e-07 -4.651901e-09) 
( -6.604129e-09 1.211113e-07 -4.651901e-09) 
( -8.186451e-09 1.210635e-07 -1.865010e-09) 
( -8.384407e-09 1.211175e-07 -1.308714e-09) 
( -1.019432e-08 1.219133e-07 -9.001704e-10) 
( -1.426154e-08 1.216018e-07 7.182574e-10) 
( -1.426154e-08 1.216018e-07 7.182574e-10) 
( -1.602066e-08 1.197094e-07 1.408602e-09) 
( -1.792300e-08 1.140611e-07 1.755185e-09) 
( -1.749827e-08 1.115770e-07 2.765851e-09) 
( -1.846593e-08 1.088966e-07 3.433278e-09) 
( -2.054703e-08 1.067423e-07 3.860145e-09) 
( -2.522283e-08 1.041993e-07 4.816848e-09) 
( -2.525967e-08 1.036235e-07 4.964566e-09) 
( -2.499941e-08 1.009468e-07 5.262464e-09) 
( -2.633417e-08 9.801738e-08 5.617921e-09) 
( -2.973393e-08 9.623902e-08 6.112264e-09) 
( -2.084956e-09 1.195204e-07 -6.976785e-09) 
( -3.683446e-09 1.180851e-07 -5.442142e-09) 
( -5.981745e-09 1.202757e-07 -4.812630e-09) 
( -7.155647e-09 1.201025e-07 -2.246048e-09) 
( -7.557362e-09 1.201797e-07 -1.577706e-09) 
( -8.384407e-09 1.211175e-07 -1.308714e-09) 
( -8.820817e-09 1.213971e-07 -9.495471e-10) 
( -1.107731e-08 1.217893e-07 -3.391110e-10) 
( -1.488591e-08 1.220635e-07 8.638023e-10) 
( -1.488591e-08 1.220635e-07 8.638023e-10) 
( -1.649171e-08 1.196921e-07 2.540134e-09) 
( -1.784984e-08 1.140783e-07 3.206309e-09) 
( -1.836717e-08 1.121119e-07 4.086080e-09) 
( -1.943292e-08 1.099213e-07 4.451877e-09) 
( -2.242984e-08 1.087923e-07 4.238805e-09) 
( -2.564364e-08 1.075205e-07 5.516084e-09) 
( -2.551206e-08 1.060166e-07 6.139241e-09) 
( -2.553787e-08 1.035762e-07 6.697448e-09) 
( -2.708773e-08 1.005678e-07 8.092584e-09) 
( 3.722194e-10 1.175277e-07 -7.412217e-09) 
( -3.683446e-09 1.180851e-07 -5.442142e-09) 
( -5.290259e-09 1.167550e-07 -3.089314e-09) 
( -7.025483e-09 1.189528e-07 -1.805801e-09) 
( -7.557362e-09 1.201797e-07 -1.577706e-09) 
( -7.860265e-09 1.205276e-07 -1.079935e-09) 
( -8.820817e-09 1.213971e-07 -9.495471e-10) 
( -9.482585e-09 1.220248e-07 -9.129578e-10) 
( -1.246992e-08 1.221283e-07 1.147238e-10) 
( -1.551669e-08 1.222239e-07 1.829812e-09) 
( -1.551669e-08 1.222239e-07 1.829812e-09) 
( -1.748313e-08 1.204839e-07 3.616812e-09) 
( -1.795722e-08 1.159858e-07 3.983245e-09) 
( -1.865774e-08 1.137901e-07 4.542762e-09) 
( -2.032280e-08 1.122806e-07 5.229222e-09) 
( -2.384659e-08 1.133520e-07 6.731450e-09) 
( -2.622199e-08 1.106660e-07 7.638526e-09) 
( -2.604921e-08 1.085651e-07 8.727343e-09) 
( -2.622425e-08 1.061856e-07 9.468837e-09) 
( 3.722194e-10 1.175277e-07 -7.412217e-09) 
( -2.655833e-09 1.156228e-07 -4.192012e-09) 
( -5.279163e-09 1.164980e-07 -2.251198e-09) 
( -5.279163e-09 1.164980e-07 -2.251198e-09) 
( -7.293850e-09 1.193436e-07 -8.308351e-10) 
( -7.860265e-09 1.205276e-07 -1.079935e-09) 
( -8.054293e-09 1.213806e-07 -8.159394e-10) 
( -9.482585e-09 1.220248e-07 -9.129578e-10) 
( -1.025584e-08 1.219624e-07 1.289597e-10) 
( -1.356281e-08 1.222607e-07 1.287075e-09) 
( -1.643801e-08 1.231248e-07 2.972461e-09) 
( -1.643801e-08 1.231248e-07 2.972461e-09) 
( -1.804054e-08 1.218674e-07 5.440344e-09) 
( -1.778732e-08 1.175789e-07 5.429945e-09) 
( -1.921889e-08 1.160375e-07 6.136255e-09) 
( -1.997855e-08 1.155714e-07 6.609919e-09) 
( -2.532100e-08 1.146661e-07 1.031509e-08) 
( -2.659065e-08 1.133834e-07 9.772916e-09) 
( -2.651513e-08 1.114245e-07 9.746027e-09) 
( 3.424508e-09 1.162727e-07 -6.651514e-09) 
( -2.459064e-09 1.146985e-07 -2.218920e-09) 
( -2.459064e-09 1.146985e-07 -2.218920e-09) 
( -5.791374e-09 1.170831e-07 -5.861656e-11) 
( -5.791374e-09 1.170831e-07 -5.861656e-11) 
( -7.119092e-09 1.204516e-07 8.721874e-11) 
( -8.054293e-09 1.213806e-07 -8.159394e-10) 
( -8.001202e-09 1.219629e-07 3.959599e-10) 
( -1.025584e-08 1.219624e-07 1.289597e-10) 
( -1.115416e-08 1.225294e-07 1.823641e-09) 
( -1.458695e-08 1.231225e-07 2.867796e-09) 
( -1.742513e-08 1.246525e-07 5.531770e-09) 
( -1.804054e-08 1.218674e-07 5.440344e-09) 
( -1.820036e-08 1.246283e-07 8.001767e-09) 
( -1.917287e-08 1.197146e-07 7.953455e-09) 
( -1.922799e-08 1.186702e-07 9.244793e-09) 
( -2.230855e-08 1.184175e-07 1.072959e-08) 
( -2.514255e-08 1.182458e-07 1.026190e-08) 
( -2.709645e-08 1.163577e-07 1.151355e-08) 
( 7.307252e-09 1.191674e-07 -3.677491e-09) 
( 2.883020e-09 1.150850e-07 -2.848609e-09) 
( -2.477463e-09 1.154707e-07 1.225271e-10) 
( -2.477463e-09 1.154707e-07 1.225271e-10) 
( -5.062218e-09 1.180264e-07 7.686687e-10) 
( -5.931784e-09 1.198709e-07 8.358187e-10) 
( -6.629477e-09 1.213630e-07 1.036084e-09) 
( -8.001202e-09 1.219629e-07 3.959599e-10) 
( -7.809090e-09 1.231870e-07 2.215583e-09) 
( -1.115416e-08 1.225294e-07 1.823641e-09) 
( -1.500963e-08 1.244141e-07 5.390576e-09) 
( -1.500963e-08 1.244141e-07 5.390576e-09) 
( -1.794953e-08 1.279261e-07 8.871753e-09) 
( -1.820036e-08 1.246283e-07 8.001767e-09) 
( -1.774181e-08 1.278545e-07 7.351336e-09) 
( -1.814740e-08 1.231827e-07 1.263068e-08) 
( -2.338331e-08 1.229890e-07 1.297598e-08) 
( -2.471550e-08 1.198035e-07 1.042658e-08) 
( -2.533529e-08 1.221373e-07 1.387423e-08) 
( 7.307252e-09 1.191674e-07 -3.677491e-09) 
( 4.986615e-09 1.180632e-07 -1.609605e-09) 
( 1.868930e-09 1.160109e-07 1.207526e-10) 
( -2.339018e-09 1.176489e-07 1.054410e-09) 
( -3.243396e-09 1.183579e-07 1.394386e-09) 
( -4.305273e-09 1.197922e-07 1.974245e-09) 
( -5.103887e-09 1.216329e-07 2.108300e-09) 
( -5.716764e-09 1.231154e-07 2.120376e-09) 
( -7.809090e-09 1.231870e-07 2.215583e-09) 
( -7.534965e-09 1.250680e-07 4.237724e-09) 
( -1.180021e-08 1.240426e-07 4.946262e-09) 
( -1.559177e-08 1.280602e-07 8.563554e-09) 
( -1.559177e-08 1.280602e-07 8.563554e-09) 
( -1.785343e-08 1.315686e-07 1.259152e-08) 
( -1.839154e-08 1.309183e-07 1.231861e-08) 
( -1.844034e-08 1.293153e-07 1.394239e-08) 
( -1.839511e-08 1.272348e-07 1.545217e-08) 
( -2.241243e-08 1.291630e-07 1.563751e-08) 
( -2.437819e-08 1.288702e-07 1.738888e-08) 
( 1.007982e-08 1.255063e-07 -2.513123e-09) 
( 7.642727e-09 1.219199e-07 -1.184152e-09) 
( 6.269348e-09 1.222394e-07 -1.542826e-10) 
( 6.977128e-10 1.184676e-07 1.060075e-09) 
( -2.487292e-09 1.203579e-07 2.568801e-09) 
( -2.981869e-09 1.208913e-07 2.790952e-09) 
( -3.617406e-09 1.224921e-07 3.028706e-09) 
( -4.269349e-09 1.241820e-07 3.229341e-09) 
( -5.319867e-09 1.256169e-07 3.635820e-09) 
( -7.534965e-09 1.250680e-07 4.237724e-09) 
( -8.510419e-09 1.286158e-07 6.311410e-09) 
( -1.257807e-08 1.281099e-07 8.003679e-09) 
( -1.496080e-08 1.304891e-07 1.123229e-08) 
( -1.684748e-08 1.332963e-07 1.307749e-08) 
( -1.792125e-08 1.354331e-07 1.490634e-08) 
( -1.919032e-08 1.352615e-07 1.631538e-08) 
( -2.046694e-08 1.343418e-07 2.154764e-08) 
( -2.131577e-08 1.411292e-07 2.292115e-08) 
( -2.207763e-08 1.360948e-07 2.039441e-08) 
( 1.147604e-08 1.313054e-07 -1.630271e-09) 
( 1.013071e-08 1.271139e-07 -1.131139e-09) 
( 6.269348e-09 1.222394e-07 -1.542826e-10) 
( 5.585898e-09 1.236113e-07 2.274583e-09) 
( 7.124301e-10 1.209593e-07 2.219241e-09) 
( -2.242920e-09 1.237294e-07 4.238436e-09) 
( -2.516127e-09 1.241817e-07 4.395665e-09) 
( -2.970739e-09 1.257607e-07 4.812054e-09) 
( -3.822102e-09 1.273819e-07 5.184071e-09) 
( -5.426112e-09 1.288574e-07 5.706021e-09) 
( -7.731595e-09 1.294111e-07 6.931849e-09) 
( -1.096440e-08 1.303662e-07 1.015960e-08) 
( -1.430469e-08 1.323905e-07 1.285175e-08) 
( -1.596964e-08 1.362026e-07 1.324361e-08) 
( -1.752061e-08 1.397875e-07 1.494436e-08) 
( -1.907405e-08 1.420851e-07 1.786838e-08) 
( -2.091039e-08 1.418932e-07 2.491921e-08) 
( -2.131577e-08 1.411292e-07 2.292115e-08) 
( -2.320608e-08 1.408456e-07 2.607129e-08) 
( 1.296290e-08 1.375930e-07 -1.119736e-09) 
( 1.212576e-08 1.329848e-07 -3.368330e-10) 
( 1.057056e-08 1.282319e-07 8.574317e-10) 
( 5.585898e-09 1.236113e-07 2.274583e-09) 
( 5.720496e-09 1.264045e-07 6.141624e-09) 
( 3.592492e-10 1.241868e-07 5.359771e-09) 
( -1.306400e-09 1.273503e-07 7.330817e-09) 
( -1.306400e-09 1.273503e-07 7.330817e-09) 
( -2.008483e-09 1.296221e-07 7.152027e-09) 
( -3.370003e-09 1.312516e-07 7.687321e-09) 
( -5.668339e-09 1.321234e-07 9.518477e-09) 
( -9.064730e-09 1.329463e-07 1.193158e-08) 
( -1.252107e-08 1.357185e-07 1.305645e-08) 
( -1.550858e-08 1.396351e-07 1.531478e-08) 
( -1.693067e-08 1.444164e-07 1.798434e-08) 
( -1.910259e-08 1.488804e-07 2.153115e-08) 
( -2.174095e-08 1.494246e-07 2.748133e-08) 
( -2.395137e-08 1.506379e-07 3.190316e-08) 
( -2.104513e-08 1.462899e-07 2.686509e-08) 
( 1.474431e-08 1.437851e-07 3.025587e-10) 
( 1.421283e-08 1.387283e-07 1.762542e-09) 
( 1.332494e-08 1.339688e-07 2.968645e-09) 
( 1.213426e-08 1.312015e-07 6.404489e-09) 
( 5.720496e-09 1.264045e-07 6.141624e-09) 
( 6.643313e-09 1.311083e-07 9.790304e-09) 
( 1.520205e-09 1.283014e-07 9.265655e-09) 
( 5.567062e-10 1.321471e-07 9.824050e-09) 
( 5.567062e-10 1.321471e-07 9.824050e-09) 
( -7.521873e-10 1.334656e-07 1.020414e-08) 
( -3.135420e-09 1.348323e-07 1.143207e-08) 
( -6.757916e-09 1.368909e-07 1.224073e-08) 
( -1.071338e-08 1.396781e-07 1.489532e-08) 
( -1.409285e-08 1.437605e-07 1.819501e-08) 
( -1.654669e-08 1.487199e-07 2.098809e-08) 
( -1.799258e-08 1.529041e-07 2.459907e-08) 
( -2.176087e-08 1.540362e-07 3.061224e-08) 
( -2.395137e-08 1.506379e-07 3.190316e-08) 
( -2.090798e-08 1.527815e-07 3.469208e-08) 
( -8.945176e-08 8.465326e-08 -4.692976e-07) 
( -6.853493e-08 1.323477e-07 -4.342101e-07) 
( -5.183050e-08 1.754842e-07 -3.977924e-07) 
( -4.484551e-08 1.955784e-07 -3.734588e-07) 
( -4.146287e-08 2.126561e-07 -3.419384e-07) 
( -3.396494e-08 2.219080e-07 -3.159782e-07) 
( -3.397203e-08 2.226631e-07 -2.913191e-07) 
( -3.805201e-08 2.230466e-07 -2.706417e-07) 
( -4.130077e-08 2.253249e-07 -2.460210e-07) 
( -3.780380e-08 2.244747e-07 -2.187496e-07) 
( -4.017482e-08 2.217496e-07 -1.981774e-07) 
( -4.042035e-08 2.171778e-07 -1.773678e-07) 
( -3.700683e-08 2.082025e-07 -1.627057e-07) 
( -3.264940e-08 2.010903e-07 -1.377781e-07) 
( -3.097296e-08 1.953622e-07 -1.152738e-07) 
( -2.989727e-08 1.909543e-07 -1.007914e-07) 
( -2.694756e-08 1.842348e-07 -8.909153e-08) 
( -2.472207e-08 1.784281e-07 -7.540567e-08) 
( -2.473453e-08 1.735620e-07 -5.850256e-08) 
( -4.573430e-08 1.041275e-07 -4.954868e-07) 
( -3.126116e-08 1.606002e-07 -4.527107e-07) 
( -2.532544e-08 1.969646e-07 -4.070665e-07) 
( -1.447283e-08 2.096395e-07 -3.819643e-07) 
( -2.007175e-08 2.166405e-07 -3.525526e-07) 
( -2.149001e-08 2.252987e-07 -3.244183e-07) 
( -2.138866e-08 2.265386e-07 -2.987909e-07) 
( -2.029927e-08 2.242248e-07 -2.747275e-07) 
( -2.551621e-08 2.248516e-07 -2.458171e-07) 
( -2.588300e-08 2.232941e-07 -2.185847e-07) 
( -2.819431e-08 2.170338e-07 -1.975555e-07) 
( -3.049246e-08 2.137344e-07 -1.710561e-07) 
( -2.893887e-08 2.066728e-07 -1.509409e-07) 
( -2.853043e-08 1.969245e-07 -1.305256e-07) 
( -2.678244e-08 1.926534e-07 -1.096057e-07) 
( -2.371967e-08 1.869730e-07 -9.718290e-08) 
( -1.952146e-08 1.820379e-07 -8.160950e-08) 
( -2.127822e-08 1.763192e-07 -6.620429e-08) 
( -2.232473e-08 1.701361e-07 -5.193974e-08) 
( 6.168998e-09 1.244243e-07 -5.108859e-07) 
( 1.490228e-08 1.739725e-07 -4.653287e-07) 
( 2.595168e-08 2.050890e-07 -4.214860e-07) 
( 4.772613e-09 2.178957e-07 -3.918271e-07) 
( -3.312880e-09 2.161176e-07 -3.640866e-07) 
( -5.116895e-09 2.334989e-07 -3.272193e-07) 
( -8.141504e-09 2.292075e-07 -3.040912e-07) 
( -1.135221e-08 2.323729e-07 -2.741885e-07) 
( -1.218889e-08 2.243949e-07 -2.476938e-07) 
( -1.775175e-08 2.227508e-07 -2.151906e-07) 
( -1.803637e-08 2.179750e-07 -1.899713e-07) 
( -1.933752e-08 2.132060e-07 -1.641263e-07) 
( -2.203519e-08 2.052628e-07 -1.384304e-07) 
( -1.654749e-08 1.988156e-07 -1.178147e-07) 
( -1.818201e-08 1.946576e-07 -9.749003e-08) 
( -1.543021e-08 1.857829e-07 -8.901785e-08) 
( -1.677874e-08 1.795689e-07 -7.526983e-08) 
( -1.797626e-08 1.732856e-07 -5.989385e-08) 
( -1.885796e-08 1.646076e-07 -4.682212e-08) 
( 3.167701e-08 1.428260e-07 -5.116258e-07) 
( 3.135426e-08 1.867091e-07 -4.687792e-07) 
( 2.614465e-08 2.010868e-07 -4.347321e-07) 
( 2.178538e-08 2.157550e-07 -3.980917e-07) 
( 2.029960e-08 2.213048e-07 -3.607985e-07) 
( 1.221225e-08 2.367807e-07 -3.254979e-07) 
( 8.817695e-09 2.265497e-07 -3.069919e-07) 
( 2.758313e-09 2.317023e-07 -2.720216e-07) 
( 1.010630e-10 2.241576e-07 -2.457300e-07) 
( -6.950093e-09 2.224344e-07 -2.183075e-07) 
( -9.146994e-09 2.194070e-07 -1.901257e-07) 
( -9.575318e-09 2.132116e-07 -1.540087e-07) 
( -1.007459e-08 2.069392e-07 -1.318244e-07) 
( -9.338851e-09 1.998077e-07 -1.132784e-07) 
( -1.235909e-08 1.934742e-07 -9.678441e-08) 
( -1.165394e-08 1.835915e-07 -8.370711e-08) 
( -1.244847e-08 1.765435e-07 -6.744412e-08) 
( -1.403471e-08 1.676623e-07 -5.460518e-08) 
( -1.570034e-08 1.579964e-07 -4.189702e-08) 
( 6.653392e-08 1.342310e-07 -5.115608e-07) 
( 4.043597e-08 1.779191e-07 -4.690487e-07) 
( 3.337378e-08 2.015079e-07 -4.295525e-07) 
( 2.995078e-08 2.182313e-07 -3.950656e-07) 
( 2.684607e-08 2.272691e-07 -3.570779e-07) 
( 1.996783e-08 2.370364e-07 -3.269346e-07) 
( 1.889389e-08 2.308984e-07 -3.037446e-07) 
( 1.695712e-08 2.313131e-07 -2.679799e-07) 
( 1.584863e-08 2.283753e-07 -2.381299e-07) 
( 9.229174e-09 2.224251e-07 -2.108027e-07) 
( 6.156226e-09 2.185569e-07 -1.823334e-07) 
( 5.514513e-09 2.137383e-07 -1.418441e-07) 
( 1.253165e-10 2.059636e-07 -1.238344e-07) 
( -4.048682e-09 1.992011e-07 -1.059820e-07) 
( -7.656680e-09 1.906569e-07 -8.927135e-08) 
( -6.467223e-09 1.811337e-07 -7.436716e-08) 
( -6.821276e-09 1.716288e-07 -5.988212e-08) 
( -9.907408e-09 1.614879e-07 -4.703115e-08) 
( -1.127441e-08 1.520114e-07 -3.389407e-08) 
( 1.063687e-07 1.151588e-07 -5.033357e-07) 
( 8.272670e-08 1.743084e-07 -4.520053e-07) 
( 6.375333e-08 1.921898e-07 -4.192146e-07) 
( 4.858736e-08 2.158421e-07 -3.845980e-07) 
( 4.348869e-08 2.258136e-07 -3.527272e-07) 
( 3.659858e-08 2.324843e-07 -3.228801e-07) 
( 2.967479e-08 2.430050e-07 -2.856217e-07) 
( 2.750760e-08 2.389530e-07 -2.568230e-07) 
( 2.544268e-08 2.344700e-07 -2.319283e-07) 
( 2.147438e-08 2.302881e-07 -2.039613e-07) 
( 1.901776e-08 2.278144e-07 -1.672556e-07) 
( 1.264162e-08 2.147357e-07 -1.350374e-07) 
( 8.666081e-09 2.062436e-07 -1.150461e-07) 
( 5.870772e-09 1.967376e-07 -9.834489e-08) 
( 1.620024e-09 1.873049e-07 -8.011303e-08) 
( -9.123934e-10 1.775366e-07 -6.334535e-08) 
( -2.841003e-09 1.652757e-07 -5.205208e-08) 
( -6.091336e-09 1.545262e-07 -4.014674e-08) 
( -8.299750e-09 1.450141e-07 -2.712810e-08) 
( 1.328156e-07 1.081315e-07 -4.761043e-07) 
( 1.098481e-07 1.501644e-07 -4.436607e-07) 
( 9.790404e-08 1.917238e-07 -4.038520e-07) 
( 7.164856e-08 2.133662e-07 -3.746652e-07) 
( 6.437138e-08 2.273342e-07 -3.444780e-07) 
( 5.774702e-08 2.385724e-07 -3.121374e-07) 
( 5.231682e-08 2.421770e-07 -2.802458e-07) 
( 4.619975e-08 2.420491e-07 -2.557578e-07) 
( 3.619609e-08 2.398514e-07 -2.254702e-07) 
( 3.128431e-08 2.392501e-07 -1.933892e-07) 
( 2.418956e-08 2.331126e-07 -1.630728e-07) 
( 2.257494e-08 2.182127e-07 -1.276621e-07) 
( 1.724966e-08 2.074864e-07 -1.100994e-07) 
( 1.291589e-08 1.963223e-07 -9.069266e-08) 
( 7.718389e-09 1.840179e-07 -7.106059e-08) 
( 3.730223e-09 1.702300e-07 -5.724064e-08) 
( 1.406107e-09 1.578285e-07 -4.372050e-08) 
( -2.660854e-09 1.478546e-07 -3.189617e-08) 
( -6.038380e-09 1.379447e-07 -2.213965e-08) 
( 1.506191e-07 8.846482e-08 -4.535662e-07) 
( 1.437792e-07 1.464236e-07 -4.225194e-07) 
( 1.198261e-07 1.882371e-07 -3.920588e-07) 
( 1.036949e-07 2.107186e-07 -3.668324e-07) 
( 8.985165e-08 2.367544e-07 -3.322193e-07) 
( 7.927566e-08 2.476656e-07 -3.003390e-07) 
( 6.989422e-08 2.557670e-07 -2.689558e-07) 
( 6.594617e-08 2.565610e-07 -2.469241e-07) 
( 6.090269e-08 2.529995e-07 -2.177169e-07) 
( 5.155618e-08 2.451476e-07 -1.913122e-07) 
( 3.557229e-08 2.372021e-07 -1.552096e-07) 
( 2.921862e-08 2.230841e-07 -1.227453e-07) 
( 2.345428e-08 2.117147e-07 -9.777046e-08) 
( 1.981923e-08 1.942059e-07 -8.185601e-08) 
( 1.447890e-08 1.791243e-07 -6.219876e-08) 
( 8.693617e-09 1.644095e-07 -4.959203e-08) 
( 5.286833e-09 1.518135e-07 -3.701767e-08) 
( 1.985284e-09 1.406253e-07 -2.701304e-08) 
( -2.415147e-09 1.314849e-07 -1.771502e-08) 
( 1.681905e-07 8.779855e-08 -4.254290e-07) 
( 1.685310e-07 1.448964e-07 -4.093571e-07) 
( 1.559978e-07 1.921837e-07 -3.858891e-07) 
( 1.374630e-07 2.245238e-07 -3.559315e-07) 
( 1.201872e-07 2.475266e-07 -3.231649e-07) 
( 1.035361e-07 2.599307e-07 -2.957322e-07) 
( 9.393889e-08 2.668390e-07 -2.653889e-07) 
( 7.987630e-08 2.680476e-07 -2.394869e-07) 
( 6.837651e-08 2.685844e-07 -2.062532e-07) 
( 6.409750e-08 2.585682e-07 -1.771925e-07) 
( 4.939102e-08 2.455664e-07 -1.473194e-07) 
( 3.985202e-08 2.270540e-07 -1.168099e-07) 
( 2.882847e-08 2.111888e-07 -9.292082e-08) 
( 2.500401e-08 1.940331e-07 -7.116112e-08) 
( 2.098126e-08 1.758963e-07 -5.440980e-08) 
( 1.370313e-08 1.601765e-07 -4.251763e-08) 
( 8.548893e-09 1.469259e-07 -3.162961e-08) 
( 5.169972e-09 1.348619e-07 -2.187967e-08) 
( 5.465045e-10 1.254646e-07 -1.293512e-08) 
( 1.864165e-07 8.342333e-08 -3.939749e-07) 
( 1.817142e-07 1.535932e-07 -3.918986e-07) 
( 1.869328e-07 1.943128e-07 -3.848539e-07) 
( 1.744101e-07 2.345996e-07 -3.577158e-07) 
( 1.462277e-07 2.541531e-07 -3.299746e-07) 
( 1.285821e-07 2.759414e-07 -2.949490e-07) 
( 1.189351e-07 2.799458e-07 -2.675308e-07) 
( 9.557685e-08 2.839724e-07 -2.325872e-07) 
( 8.209016e-08 2.766216e-07 -2.017144e-07) 
( 7.299151e-08 2.674677e-07 -1.702657e-07) 
( 5.915818e-08 2.518722e-07 -1.456611e-07) 
( 4.637054e-08 2.324696e-07 -1.042001e-07) 
( 3.530572e-08 2.134364e-07 -8.212582e-08) 
( 2.607621e-08 1.939952e-07 -6.123424e-08) 
( 2.146106e-08 1.753352e-07 -4.927179e-08) 
( 1.408675e-08 1.580670e-07 -3.685908e-08) 
( 1.059621e-08 1.437643e-07 -2.552022e-08) 
( 6.661790e-09 1.316550e-07 -1.698984e-08) 
( 2.460506e-09 1.229390e-07 -1.066168e-08) 
( 1.927995e-07 8.385297e-08 -3.763292e-07) 
( 1.936555e-07 1.632865e-07 -3.730697e-07) 
( 1.983220e-07 2.025785e-07 -3.827706e-07) 
( 1.907863e-07 2.428450e-07 -3.661943e-07) 
( 1.773172e-07 2.720733e-07 -3.379853e-07) 
( 1.581948e-07 2.920841e-07 -3.014173e-07) 
( 1.330428e-07 3.004372e-07 -2.608338e-07) 
( 1.092363e-07 2.990780e-07 -2.254506e-07) 
( 9.853001e-08 2.911108e-07 -1.899065e-07) 
( 8.389118e-08 2.744366e-07 -1.659780e-07) 
( 7.034051e-08 2.608087e-07 -1.312335e-07) 
( 5.645150e-08 2.416583e-07 -9.147808e-08) 
( 4.291797e-08 2.189021e-07 -7.134731e-08) 
( 3.222607e-08 1.971089e-07 -5.298233e-08) 
( 2.835172e-08 1.757693e-07 -4.389088e-08) 
( 1.876998e-08 1.577644e-07 -3.176593e-08) 
( 1.162178e-08 1.426245e-07 -2.155886e-08) 
( 7.060984e-09 1.306124e-07 -1.452262e-08) 
( 3.653299e-09 1.217223e-07 -9.929143e-09) 
( 1.926153e-07 8.482758e-08 -3.696548e-07) 
( 1.929117e-07 1.743733e-07 -3.684362e-07) 
( 2.052455e-07 2.154308e-07 -3.791362e-07) 
( 2.025963e-07 2.663505e-07 -3.676772e-07) 
( 1.971017e-07 2.941564e-07 -3.353430e-07) 
( 1.739253e-07 3.129191e-07 -3.031184e-07) 
( 1.486057e-07 3.230167e-07 -2.507233e-07) 
( 1.300020e-07 3.132288e-07 -2.164942e-07) 
( 1.134944e-07 3.035582e-07 -1.811970e-07) 
( 9.198474e-08 2.911783e-07 -1.456609e-07) 
( 8.046252e-08 2.729453e-07 -1.125111e-07) 
( 6.742052e-08 2.503852e-07 -7.983998e-08) 
( 4.985479e-08 2.246513e-07 -6.413034e-08) 
( 3.917422e-08 2.045081e-07 -4.847019e-08) 
( 3.488928e-08 1.805269e-07 -4.178882e-08) 
( 2.201770e-08 1.587186e-07 -2.900477e-08) 
( 1.237266e-08 1.424134e-07 -2.009052e-08) 
( 7.165550e-09 1.304951e-07 -1.325709e-08) 
( 4.552748e-09 1.198669e-07 -9.732412e-09) 
( 1.933327e-07 8.575206e-08 -3.621030e-07) 
( 1.986987e-07 1.805974e-07 -3.645310e-07) 
( 2.054983e-07 2.335630e-07 -3.731502e-07) 
( 2.130730e-07 2.880187e-07 -3.598117e-07) 
( 2.091300e-07 3.157094e-07 -3.297685e-07) 
( 1.869657e-07 3.393908e-07 -2.851730e-07) 
( 1.637652e-07 3.387431e-07 -2.464196e-07) 
( 1.378830e-07 3.264407e-07 -2.057497e-07) 
( 1.186981e-07 3.161982e-07 -1.625184e-07) 
( 1.018460e-07 3.031363e-07 -1.290480e-07) 
( 8.511714e-08 2.889207e-07 -9.814019e-08) 
( 7.555743e-08 2.622673e-07 -7.542002e-08) 
( 5.974352e-08 2.344432e-07 -6.235100e-08) 
( 4.334691e-08 2.105956e-07 -4.939835e-08) 
( 3.732449e-08 1.847069e-07 -4.109590e-08) 
( 2.478410e-08 1.606602e-07 -2.959890e-08) 
( 1.322698e-08 1.428836e-07 -1.869892e-08) 
( 8.297755e-09 1.312184e-07 -1.269445e-08) 
( 6.402844e-09 1.246454e-07 -1.096623e-08) 
( 1.970506e-07 9.639871e-08 -3.514628e-07) 
( 2.195686e-07 2.083236e-07 -3.484948e-07) 
( 2.471724e-07 2.588509e-07 -3.503624e-07) 
( 2.462092e-07 3.058875e-07 -3.368261e-07) 
( 2.236044e-07 3.477756e-07 -3.001102e-07) 
( 2.020469e-07 3.573715e-07 -2.626226e-07) 
( 1.760545e-07 3.493187e-07 -2.201582e-07) 
( 1.508647e-07 3.442086e-07 -1.769298e-07) 
( 1.282653e-07 3.252576e-07 -1.453245e-07) 
( 1.023949e-07 3.183010e-07 -1.096125e-07) 
( 8.607596e-08 3.004245e-07 -8.732076e-08) 
( 7.934267e-08 2.734816e-07 -7.507467e-08) 
( 6.922161e-08 2.437523e-07 -6.016709e-08) 
( 4.822882e-08 2.154136e-07 -4.733166e-08) 
( 4.011958e-08 1.874209e-07 -4.032786e-08) 
( 2.733091e-08 1.636428e-07 -2.757251e-08) 
( 1.752452e-08 1.469673e-07 -1.808546e-08) 
( 1.027561e-08 1.329508e-07 -1.009346e-08) 
( 7.158221e-09 1.206761e-07 -7.759638e-09) 
( 2.208639e-07 1.262106e-07 -3.305633e-07) 
( 2.455572e-07 2.605943e-07 -3.416005e-07) 
( 2.646973e-07 3.232705e-07 -3.319675e-07) 
( 2.786041e-07 3.614098e-07 -3.002543e-07) 
( 2.688768e-07 3.756978e-07 -2.668070e-07) 
( 2.335150e-07 3.809894e-07 -2.148841e-07) 
( 1.961682e-07 3.676525e-07 -1.750093e-07) 
( 1.634544e-07 3.556073e-07 -1.448084e-07) 
( 1.460570e-07 3.388645e-07 -1.237232e-07) 
( 1.137652e-07 3.292441e-07 -9.261253e-08) 
( 9.705286e-08 3.090073e-07 -7.710542e-08) 
( 9.325076e-08 2.831250e-07 -6.682472e-08) 
( 7.566568e-08 2.531384e-07 -5.407482e-08) 
( 5.838176e-08 2.219099e-07 -4.284393e-08) 
( 4.489876e-08 1.937802e-07 -3.268813e-08) 
( 3.091229e-08 1.700958e-07 -2.184777e-08) 
( 2.052194e-08 1.511939e-07 -1.372434e-08) 
( 1.282800e-08 1.359059e-07 -5.807557e-09) 
( 1.027698e-08 1.255874e-07 -3.616554e-09) 
( 3.116430e-07 1.855502e-07 -3.178589e-07) 
( 3.270093e-07 3.362606e-07 -3.199373e-07) 
( 3.233103e-07 4.037366e-07 -2.797456e-07) 
( 3.085567e-07 4.237219e-07 -2.426698e-07) 
( 2.990101e-07 4.123487e-07 -2.187622e-07) 
( 2.510755e-07 4.029014e-07 -1.796252e-07) 
( 2.168716e-07 3.820017e-07 -1.495049e-07) 
( 1.859405e-07 3.654547e-07 -1.193129e-07) 
( 1.500837e-07 3.534716e-07 -8.792886e-08) 