/*--------------------------------*- C++ -*----------------------------------*\
| =========                 |                                                 |
| \\      /  F ield         | foam-extend: Open Source CFD                    |
|  \\    /   O peration     | Version:     3.1                                |
|   \\  /    A nd           | Web:         http://www.extend-project.de       |
|    \\/     M anipulation  |                                                 |
\*---------------------------------------------------------------------------*/
FoamFile
{
    version     2.0;
    format      ascii;
    class       volVectorField;
    location    "345600";
    object      DU_0;
}
// * * * * * * * * * * * * * * * * * * * * * * * * * * * * * * * * * * * * * //

dimensions      [0 1 0 0 0 0 0];

internalField   nonuniform List<vector> 
23248
(
(-3.67898e-08 4.66097e-12 -3.33114e-07)
(-3.67926e-08 8.96586e-12 -3.33113e-07)
(-3.67966e-08 2.89095e-11 -3.33112e-07)
(-3.681e-08 8.26253e-11 -3.33109e-07)
(-3.68389e-08 2.03201e-10 -3.33113e-07)
(-3.68621e-08 4.9504e-10 -3.33145e-07)
(-3.69389e-08 1.28301e-09 -3.33205e-07)
(-3.72348e-08 3.39753e-09 -3.33224e-07)
(-3.80731e-08 9.98365e-09 -3.33043e-07)
(-3.46114e-08 -1.61547e-11 -3.2883e-07)
(-3.46137e-08 1.56729e-11 -3.28818e-07)
(-3.46226e-08 6.19417e-11 -3.28808e-07)
(-3.46188e-08 1.64246e-10 -3.28767e-07)
(-3.46759e-08 4.19205e-10 -3.28758e-07)
(-3.47273e-08 1.02845e-09 -3.28731e-07)
(-3.48064e-08 2.68135e-09 -3.28596e-07)
(-3.51378e-08 7.13203e-09 -3.28124e-07)
(-3.67788e-08 1.94992e-08 -3.2698e-07)
(-2.00726e-08 -1.23264e-11 -3.50717e-07)
(-2.00725e-08 4.68654e-12 -3.50717e-07)
(-2.00745e-08 2.54885e-11 -3.50718e-07)
(-2.00782e-08 7.20834e-11 -3.50721e-07)
(-2.00818e-08 1.89017e-10 -3.5073e-07)
(-2.01062e-08 4.90254e-10 -3.50756e-07)
(-2.01766e-08 1.28421e-09 -3.50814e-07)
(-2.04219e-08 3.50637e-09 -3.50831e-07)
(-2.14897e-08 1.08161e-08 -3.49242e-07)
(-1.71456e-08 -3.20758e-11 -3.44986e-07)
(-1.71461e-08 7.76421e-12 -3.4498e-07)
(-1.71485e-08 5.16157e-11 -3.44976e-07)
(-1.71527e-08 1.45688e-10 -3.4497e-07)
(-1.71658e-08 3.83712e-10 -3.44958e-07)
(-1.71949e-08 1.00555e-09 -3.44927e-07)
(-1.72902e-08 2.68695e-09 -3.44817e-07)
(-1.77322e-08 7.31903e-09 -3.44279e-07)
(-1.95817e-08 2.01005e-08 -3.41845e-07)
(-1.23638e-10 3.1186e-12 -3.58426e-07)
(-1.22873e-10 5.981e-12 -3.58425e-07)
(-1.2333e-10 2.35795e-11 -3.58425e-07)
(-1.24271e-10 6.61812e-11 -3.58428e-07)
(-1.29795e-10 1.7568e-10 -3.58437e-07)
(-1.4203e-10 4.61315e-10 -3.58463e-07)
(-1.85127e-10 1.20488e-09 -3.58525e-07)
(-3.65814e-10 3.24663e-09 -3.58533e-07)
(-1.7074e-09 9.93857e-09 -3.56933e-07)
(4.84968e-10 -1.54904e-11 -3.52524e-07)
(4.85531e-10 9.1132e-12 -3.52515e-07)
(4.8498e-10 4.75897e-11 -3.52511e-07)
(4.83835e-10 1.3385e-10 -3.52506e-07)
(4.75136e-10 3.55607e-10 -3.52496e-07)
(4.48111e-10 9.43573e-10 -3.52469e-07)
(3.50185e-10 2.52885e-09 -3.52376e-07)
(-5.35635e-11 6.83008e-09 -3.51818e-07)
(-1.57506e-09 1.82601e-08 -3.4872e-07)
(1.30891e-08 2.81737e-12 -3.59433e-07)
(1.30881e-08 4.70017e-12 -3.5943e-07)
(1.30873e-08 2.15198e-11 -3.5943e-07)
(1.30851e-08 6.04651e-11 -3.59433e-07)
(1.30854e-08 1.59093e-10 -3.5944e-07)
(1.30657e-08 4.13566e-10 -3.59466e-07)
(1.30077e-08 1.07509e-09 -3.59525e-07)
(1.2892e-08 2.9277e-09 -3.59533e-07)
(1.30781e-08 9.40747e-09 -3.57989e-07)
(1.88974e-08 -2.88065e-11 -3.51521e-07)
(1.8897e-08 6.47299e-12 -3.51519e-07)
(1.8894e-08 4.33234e-11 -3.51517e-07)
(1.88858e-08 1.22095e-10 -3.51513e-07)
(1.88684e-08 3.20932e-10 -3.51504e-07)
(1.88166e-08 8.42195e-10 -3.51487e-07)
(1.86692e-08 2.24494e-09 -3.51424e-07)
(1.83098e-08 6.10225e-09 -3.50967e-07)
(1.76419e-08 1.66803e-08 -3.48145e-07)
(5.14014e-08 7.40616e-13 -3.54672e-07)
(5.14004e-08 3.20454e-12 -3.54669e-07)
(5.14003e-08 1.94785e-11 -3.54669e-07)
(5.14048e-08 5.52381e-11 -3.54672e-07)
(5.14457e-08 1.43573e-10 -3.54665e-07)
(5.1462e-08 3.58348e-10 -3.54685e-07)
(5.14591e-08 8.95867e-10 -3.54739e-07)
(5.11641e-08 2.26482e-09 -3.54842e-07)
(4.68687e-08 6.62432e-09 -3.55055e-07)
(5.00078e-08 -3.36876e-11 -3.48056e-07)
(5.00051e-08 3.24149e-12 -3.48056e-07)
(5.00061e-08 4.16299e-11 -3.48055e-07)
(5.00124e-08 1.18943e-10 -3.48051e-07)
(5.00299e-08 3.08296e-10 -3.48039e-07)
(5.00576e-08 7.91138e-10 -3.48015e-07)
(5.0065e-08 2.04859e-09 -3.4795e-07)
(4.97653e-08 5.37119e-09 -3.4762e-07)
(4.81357e-08 1.43438e-08 -3.4564e-07)
(6.63137e-08 -2.21296e-11 -3.58336e-07)
(6.63109e-08 -1.26643e-12 -3.58334e-07)
(6.63098e-08 2.00718e-11 -3.58334e-07)
(6.63116e-08 6.06924e-11 -3.58335e-07)
(6.63238e-08 1.60921e-10 -3.58336e-07)
(6.63223e-08 4.21087e-10 -3.58356e-07)
(6.63125e-08 1.09825e-09 -3.58393e-07)
(6.64176e-08 2.97582e-09 -3.58268e-07)
(7.0852e-08 8.76406e-09 -3.54782e-07)
(6.6076e-08 -4.38153e-11 -3.48608e-07)
(6.60782e-08 -2.20181e-12 -3.48611e-07)
(6.60789e-08 4.0586e-11 -3.48611e-07)
(6.60812e-08 1.22647e-10 -3.48608e-07)
(6.6086e-08 3.25529e-10 -3.48598e-07)
(6.60868e-08 8.58276e-10 -3.48578e-07)
(6.60773e-08 2.27601e-09 -3.48495e-07)
(6.59526e-08 6.03653e-09 -3.47946e-07)
(6.47014e-08 1.56139e-08 -3.44975e-07)
(7.26206e-08 -3.54746e-11 -3.4958e-07)
(7.26217e-08 -1.84678e-12 -3.49581e-07)
(7.26223e-08 2.24023e-11 -3.49582e-07)
(7.2624e-08 6.69114e-11 -3.49584e-07)
(7.26209e-08 1.72524e-10 -3.49594e-07)
(7.25958e-08 4.41268e-10 -3.4962e-07)
(7.26156e-08 1.14972e-09 -3.49655e-07)
(7.27859e-08 3.01938e-09 -3.49586e-07)
(7.35452e-08 9.27097e-09 -3.47818e-07)
(7.73774e-08 -4.47592e-11 -3.37044e-07)
(7.73783e-08 -4.55644e-13 -3.37049e-07)
(7.73776e-08 4.3728e-11 -3.37051e-07)
(7.73734e-08 1.29597e-10 -3.37049e-07)
(7.73586e-08 3.37869e-10 -3.37043e-07)
(7.7319e-08 8.71568e-10 -3.37029e-07)
(7.7269e-08 2.27621e-09 -3.36958e-07)
(7.72401e-08 6.01819e-09 -3.36504e-07)
(7.73014e-08 1.59766e-08 -3.34136e-07)
(9.09731e-08 -3.06174e-11 -3.36901e-07)
(9.0973e-08 -2.82362e-14 -3.36904e-07)
(9.09747e-08 2.09062e-11 -3.36906e-07)
(9.09787e-08 6.11624e-11 -3.36909e-07)
(9.10466e-08 1.52445e-10 -3.36904e-07)
(9.13561e-08 4.0042e-10 -3.36882e-07)
(9.14462e-08 9.81371e-10 -3.36886e-07)
(9.22272e-08 2.57901e-09 -3.36765e-07)
(9.36104e-08 7.93082e-09 -3.35563e-07)
(9.85105e-08 -8.51715e-12 -3.21851e-07)
(9.85143e-08 6.91171e-12 -3.21855e-07)
(9.85169e-08 4.60038e-11 -3.21858e-07)
(9.85211e-08 1.29447e-10 -3.21856e-07)
(9.85367e-08 3.33327e-10 -3.2185e-07)
(9.85552e-08 8.57394e-10 -3.21833e-07)
(9.85609e-08 2.19007e-09 -3.21786e-07)
(9.84044e-08 5.69906e-09 -3.21569e-07)
(9.68241e-08 1.51051e-08 -3.2062e-07)
(1.08683e-07 -2.44167e-11 -3.22862e-07)
(1.08684e-07 3.68874e-12 -3.22864e-07)
(1.08699e-07 2.73002e-11 -3.22851e-07)
(1.08707e-07 6.7731e-11 -3.22831e-07)
(1.08705e-07 1.70734e-10 -3.22844e-07)
(1.08695e-07 4.51213e-10 -3.22896e-07)
(1.08758e-07 1.18091e-09 -3.22909e-07)
(1.08927e-07 2.93473e-09 -3.22909e-07)
(1.08593e-07 8.61179e-09 -3.2252e-07)
(1.10962e-07 -1.5668e-12 -3.07406e-07)
(1.10967e-07 1.45215e-11 -3.07415e-07)
(1.10972e-07 5.17885e-11 -3.07414e-07)
(1.1097e-07 1.33587e-10 -3.07411e-07)
(1.10956e-07 3.42315e-10 -3.07417e-07)
(1.10924e-07 9.06171e-10 -3.07435e-07)
(1.10894e-07 2.4127e-09 -3.07411e-07)
(1.10776e-07 6.3144e-09 -3.0723e-07)
(1.10196e-07 1.68751e-08 -3.06428e-07)
(1.34913e-07 -3.30621e-11 -3.05386e-07)
(1.34916e-07 6.48531e-12 -3.05391e-07)
(1.34933e-07 2.78238e-11 -3.05385e-07)
(1.34938e-07 6.70101e-11 -3.05385e-07)
(1.34922e-07 1.57152e-10 -3.05401e-07)
(1.34733e-07 3.33881e-10 -3.05554e-07)
(1.3409e-07 1.06334e-09 -3.06147e-07)
(1.35747e-07 3.0908e-09 -3.04953e-07)
(1.3148e-07 8.70467e-09 -3.06603e-07)
(1.30901e-07 1.22817e-11 -2.92873e-07)
(1.30906e-07 1.8499e-11 -2.92874e-07)
(1.30917e-07 5.54213e-11 -2.92873e-07)
(1.30922e-07 1.41711e-10 -2.92871e-07)
(1.30892e-07 3.4277e-10 -2.92887e-07)
(1.30729e-07 8.64126e-10 -2.93017e-07)
(1.30462e-07 2.41352e-09 -2.9326e-07)
(1.3032e-07 6.47278e-09 -2.92983e-07)
(1.30038e-07 1.69422e-08 -2.91757e-07)
(1.57326e-07 -8.59208e-12 -2.95284e-07)
(1.57326e-07 9.07534e-12 -2.95287e-07)
(1.573e-07 2.84368e-11 -2.95348e-07)
(1.57296e-07 9.32545e-11 -2.95364e-07)
(1.57284e-07 2.44072e-10 -2.95375e-07)
(1.57045e-07 6.50521e-10 -2.95505e-07)
(1.63112e-07 2.96351e-09 -2.91079e-07)
(1.5601e-07 2.98319e-09 -2.96286e-07)
(1.55487e-07 9.05799e-09 -2.96175e-07)
(1.56608e-07 2.73399e-11 -2.82982e-07)
(1.56612e-07 2.79419e-11 -2.82982e-07)
(1.56624e-07 7.32878e-11 -2.82986e-07)
(1.5663e-07 1.98466e-10 -2.82984e-07)
(1.56602e-07 4.95901e-10 -2.82973e-07)
(1.5638e-07 1.14721e-09 -2.82992e-07)
(1.55491e-07 2.57356e-09 -2.83318e-07)
(1.55858e-07 6.79604e-09 -2.82803e-07)
(1.55816e-07 1.78134e-08 -2.81801e-07)
(1.85273e-07 -4.65915e-12 -2.92128e-07)
(1.85275e-07 1.60819e-11 -2.92132e-07)
(1.85273e-07 4.09078e-11 -2.92136e-07)
(1.85272e-07 1.00866e-10 -2.92143e-07)
(1.85277e-07 2.53808e-10 -2.92152e-07)
(1.85658e-07 6.84518e-10 -2.91845e-07)
(1.87677e-07 1.45802e-09 -2.90344e-07)
(1.87158e-07 2.99688e-09 -2.90883e-07)
(1.86266e-07 8.97056e-09 -2.91771e-07)
(1.94756e-07 3.26474e-11 -2.76978e-07)
(1.94753e-07 3.75213e-11 -2.76974e-07)
(1.94749e-07 8.81806e-11 -2.76975e-07)
(1.94745e-07 2.17091e-10 -2.76977e-07)
(1.94748e-07 5.32585e-10 -2.7696e-07)
(1.94773e-07 1.2672e-09 -2.76856e-07)
(1.94718e-07 2.90904e-09 -2.76696e-07)
(1.94581e-07 7.22009e-09 -2.7676e-07)
(1.94945e-07 1.88833e-08 -2.76581e-07)
(2.74171e-07 1.58376e-11 -2.87516e-07)
(2.74171e-07 1.67247e-11 -2.87515e-07)
(2.74171e-07 3.94804e-11 -2.87517e-07)
(2.74174e-07 9.43807e-11 -2.87523e-07)
(2.74182e-07 2.22711e-10 -2.87534e-07)
(2.74259e-07 5.31325e-10 -2.87544e-07)
(2.7439e-07 1.31987e-09 -2.87529e-07)
(2.74528e-07 3.38145e-09 -2.87588e-07)
(2.7303e-07 9.65275e-09 -2.88415e-07)
(2.73347e-07 3.10463e-12 -2.86257e-07)
(2.73344e-07 3.48821e-11 -2.8624e-07)
(2.73348e-07 9.37056e-11 -2.86234e-07)
(2.73363e-07 2.26443e-10 -2.8623e-07)
(2.73399e-07 5.45419e-10 -2.86217e-07)
(2.7347e-07 1.33043e-09 -2.86185e-07)
(2.7351e-07 3.30657e-09 -2.86117e-07)
(2.73105e-07 8.39304e-09 -2.85941e-07)
(2.70746e-07 2.18865e-08 -2.85615e-07)
(3.62999e-07 2.66071e-11 -3.20842e-07)
(3.63018e-07 2.18986e-11 -3.20824e-07)
(3.63019e-07 4.78132e-11 -3.20824e-07)
(3.63019e-07 1.16467e-10 -3.20832e-07)
(3.63019e-07 2.80804e-10 -3.20852e-07)
(3.63009e-07 6.79537e-10 -3.20901e-07)
(3.62951e-07 1.67265e-09 -3.21024e-07)
(3.62692e-07 4.43206e-09 -3.2107e-07)
(3.59824e-07 1.22161e-08 -3.15611e-07)
(3.76007e-07 -2.22839e-11 -3.14754e-07)
(3.76011e-07 3.94755e-11 -3.14736e-07)
(3.76013e-07 1.18252e-10 -3.1473e-07)
(3.76013e-07 2.9077e-10 -3.14733e-07)
(3.76002e-07 7.04029e-10 -3.14738e-07)
(3.75939e-07 1.7143e-09 -3.1475e-07)
(3.75618e-07 4.22326e-09 -3.14735e-07)
(3.7431e-07 1.05393e-08 -3.1438e-07)
(3.69529e-07 2.54183e-08 -3.13164e-07)
(5.06568e-07 -2.73444e-11 -3.44502e-07)
(5.06593e-07 1.4617e-11 -3.44498e-07)
(5.06597e-07 5.81723e-11 -3.44497e-07)
(5.06602e-07 1.46669e-10 -3.44506e-07)
(5.06608e-07 3.53387e-10 -3.4453e-07)
(5.06609e-07 8.48172e-10 -3.44588e-07)
(5.06547e-07 2.07832e-09 -3.44707e-07)
(5.06002e-07 5.57743e-09 -3.4476e-07)
(4.99229e-07 1.79585e-08 -3.43631e-07)
(5.1635e-07 -2.12442e-11 -3.47526e-07)
(5.16366e-07 4.37899e-11 -3.47526e-07)
(5.16378e-07 1.40849e-10 -3.4752e-07)
(5.16386e-07 3.50991e-10 -3.47511e-07)
(5.16386e-07 8.51828e-10 -3.47492e-07)
(5.16331e-07 2.07946e-09 -3.4744e-07)
(5.15915e-07 5.12962e-09 -3.47191e-07)
(5.13647e-07 1.27375e-08 -3.45743e-07)
(5.03762e-07 3.19301e-08 -3.39207e-07)
(6.39756e-07 -8.44693e-12 -3.50063e-07)
(6.40159e-07 2.87188e-11 -3.49726e-07)
(6.40178e-07 7.36351e-11 -3.49713e-07)
(6.40188e-07 1.76173e-10 -3.49719e-07)
(6.40202e-07 4.12496e-10 -3.4974e-07)
(6.40219e-07 9.61716e-10 -3.49788e-07)
(6.40173e-07 2.30734e-09 -3.49847e-07)
(6.39406e-07 6.36972e-09 -3.49571e-07)
(6.29647e-07 2.15162e-08 -3.42685e-07)
(6.56802e-07 1.51195e-11 -3.4049e-07)
(6.56834e-07 6.79539e-11 -3.40471e-07)
(6.56849e-07 1.76015e-10 -3.40451e-07)
(6.5685e-07 4.21624e-10 -3.40436e-07)
(6.56827e-07 1.00253e-09 -3.40412e-07)
(6.56721e-07 2.40677e-09 -3.40328e-07)
(6.56022e-07 5.84612e-09 -3.39892e-07)
(6.52148e-07 1.4438e-08 -3.37464e-07)
(6.35472e-07 3.68104e-08 -3.27033e-07)
(7.77023e-07 -3.01594e-11 -2.46521e-07)
(7.77034e-07 3.27399e-11 -2.46521e-07)
(7.77037e-07 9.59497e-11 -2.46528e-07)
(7.7704e-07 2.25465e-10 -2.46546e-07)
(7.77042e-07 5.11194e-10 -2.46593e-07)
(7.77013e-07 1.14806e-09 -2.467e-07)
(7.76783e-07 2.6615e-09 -2.46906e-07)
(7.75084e-07 7.08747e-09 -2.47398e-07)
(7.5844e-07 2.29018e-08 -2.50606e-07)
(7.68197e-07 1.10883e-12 -2.6113e-07)
(7.68197e-07 7.91173e-11 -2.61122e-07)
(7.68199e-07 2.15423e-10 -2.61107e-07)
(7.68191e-07 5.11962e-10 -2.61085e-07)
(7.68148e-07 1.19349e-09 -2.61068e-07)
(7.67897e-07 2.78309e-09 -2.61113e-07)
(7.6681e-07 6.52264e-09 -2.60874e-07)
(7.61628e-07 1.54698e-08 -2.59262e-07)
(7.41497e-07 3.83587e-08 -2.51638e-07)
(8.11788e-07 -2.89486e-11 -1.79594e-07)
(8.11795e-07 4.39268e-11 -1.796e-07)
(8.11801e-07 1.2864e-10 -1.7961e-07)
(8.11813e-07 3.04085e-10 -1.79633e-07)
(8.11837e-07 6.98832e-10 -1.79679e-07)
(8.11862e-07 1.6084e-09 -1.79748e-07)
(8.11744e-07 3.84948e-09 -1.79764e-07)
(8.10362e-07 1.02758e-08 -1.79151e-07)
(7.98336e-07 3.09722e-08 -1.72898e-07)
(8.03047e-07 2.73458e-11 -1.82791e-07)
(8.03048e-07 9.5887e-11 -1.82791e-07)
(8.03043e-07 2.50229e-10 -1.82793e-07)
(8.03027e-07 5.96693e-10 -1.828e-07)
(8.02974e-07 1.40314e-09 -1.82808e-07)
(8.02748e-07 3.31569e-09 -1.82762e-07)
(8.01665e-07 7.91022e-09 -1.8226e-07)
(7.96996e-07 1.90413e-08 -1.79277e-07)
(7.81021e-07 4.68524e-08 -1.65962e-07)
(7.77321e-07 -3.63493e-11 -3.51425e-08)
(7.77327e-07 2.94541e-11 -3.5146e-08)
(7.77335e-07 9.88013e-11 -3.51512e-08)
(7.77352e-07 2.34819e-10 -3.51642e-08)
(7.77386e-07 5.34573e-10 -3.51894e-08)
(7.77438e-07 1.21205e-09 -3.52442e-08)
(7.77422e-07 2.83193e-09 -3.53765e-08)
(7.76692e-07 7.32495e-09 -3.58558e-08)
(7.70107e-07 2.32414e-08 -3.97066e-08)
(7.74441e-07 2.3957e-11 -4.53486e-08)
(7.74442e-07 8.28431e-11 -4.53469e-08)
(7.7444e-07 2.27668e-10 -4.53424e-08)
(7.74427e-07 5.43565e-10 -4.53299e-08)
(7.74387e-07 1.26582e-09 -4.53009e-08)
(7.74219e-07 2.95429e-09 -4.52364e-08)
(7.734e-07 6.9734e-09 -4.51199e-08)
(7.69662e-07 1.68421e-08 -4.51143e-08)
(7.55424e-07 4.35116e-08 -4.53331e-08)
(-4.60599e-08 2.30156e-11 -3.24513e-07)
(-4.60599e-08 1.06345e-11 -3.24511e-07)
(-4.60617e-08 2.86963e-11 -3.2451e-07)
(-4.60919e-08 9.53387e-11 -3.24492e-07)
(-4.62197e-08 2.16261e-10 -3.24399e-07)
(-4.61903e-08 4.67825e-10 -3.24469e-07)
(-4.6268e-08 1.27829e-09 -3.24562e-07)
(-4.67629e-08 3.35301e-09 -3.24557e-07)
(-4.90417e-08 9.90324e-09 -3.24624e-07)
(-5.60516e-08 1.6451e-11 -3.11628e-07)
(-5.60231e-08 -1.65259e-12 -3.11652e-07)
(-5.58757e-08 7.34249e-12 -3.11785e-07)
(-5.58618e-08 1.3549e-10 -3.11789e-07)
(-5.75125e-08 7.04187e-10 -3.05724e-07)
(-5.62251e-08 6.15052e-10 -3.115e-07)
(-5.6291e-08 1.96716e-09 -3.11594e-07)
(-5.89528e-08 1.15981e-08 -3.04955e-07)
(-6.28149e-08 2.57696e-08 -3.05682e-07)
(-6.85521e-08 6.35305e-11 -2.9266e-07)
(-6.85685e-08 1.83888e-10 -2.92433e-07)
(-6.1607e-08 1.22687e-10 -2.97354e-07)
(-6.15047e-08 1.2517e-10 -2.97336e-07)
(-6.16955e-08 3.18546e-10 -2.97349e-07)
(-6.87161e-08 1.73523e-09 -2.92402e-07)
(-6.89075e-08 4.43575e-09 -2.92397e-07)
(-6.2154e-08 4.69696e-09 -2.97439e-07)
(-6.43909e-08 1.31325e-08 -2.97979e-07)
(-8.29134e-08 3.13351e-11 -2.88296e-07)
(-8.28707e-08 3.87247e-11 -2.88299e-07)
(-8.30713e-08 8.32672e-11 -2.87817e-07)
(-8.32813e-08 1.15105e-10 -2.87622e-07)
(-8.32621e-08 2.79297e-10 -2.87659e-07)
(-8.29519e-08 7.29684e-10 -2.88218e-07)
(-8.30472e-08 1.94029e-09 -2.88405e-07)
(-8.34918e-08 4.97522e-09 -2.88047e-07)
(-8.42889e-08 1.45617e-08 -2.88278e-07)
(-1.04099e-07 7.91052e-12 -2.78675e-07)
(-1.04036e-07 1.30703e-11 -2.78711e-07)
(-1.03828e-07 4.19352e-11 -2.78839e-07)
(-1.0359e-07 1.22869e-10 -2.78993e-07)
(-1.03661e-07 3.1814e-10 -2.78975e-07)
(-1.03848e-07 7.84004e-10 -2.78918e-07)
(-1.03913e-07 1.99506e-09 -2.79007e-07)
(-1.04037e-07 5.29878e-09 -2.79128e-07)
(-1.02986e-07 1.5547e-08 -2.78682e-07)
(-1.07484e-07 8.37324e-12 -2.70267e-07)
(-1.07467e-07 2.03822e-11 -2.70275e-07)
(-1.07425e-07 6.35541e-11 -2.70308e-07)
(-1.07422e-07 1.58121e-10 -2.70316e-07)
(-1.0746e-07 3.70039e-10 -2.70313e-07)
(-1.07505e-07 9.14972e-10 -2.70354e-07)
(-1.0753e-07 2.29386e-09 -2.70467e-07)
(-1.07442e-07 5.82907e-09 -2.70733e-07)
(-1.09216e-07 1.68587e-08 -2.70758e-07)
(-1.21298e-07 -4.33491e-12 -2.63628e-07)
(-1.21288e-07 3.1888e-11 -2.63633e-07)
(-1.21268e-07 7.39873e-11 -2.63643e-07)
(-1.21287e-07 1.71116e-10 -2.63647e-07)
(-1.21336e-07 4.28379e-10 -2.63657e-07)
(-1.214e-07 1.06161e-09 -2.63694e-07)
(-1.2151e-07 2.65166e-09 -2.6378e-07)
(-1.2144e-07 6.90331e-09 -2.63937e-07)
(-1.17053e-07 1.88193e-08 -2.6452e-07)
(-1.44444e-07 7.64214e-13 -2.55254e-07)
(-1.44444e-07 2.35774e-11 -2.55255e-07)
(-1.44439e-07 6.52664e-11 -2.5526e-07)
(-1.44422e-07 1.60384e-10 -2.55273e-07)
(-1.44461e-07 3.96035e-10 -2.55293e-07)
(-1.44494e-07 9.68581e-10 -2.55347e-07)
(-1.44526e-07 2.37653e-09 -2.55467e-07)
(-1.4447e-07 6.11783e-09 -2.5555e-07)
(-1.43221e-07 1.71889e-08 -2.53914e-07)
(-1.51687e-07 -1.19668e-12 -2.66939e-07)
(-1.51687e-07 2.68112e-11 -2.66941e-07)
(-1.51683e-07 7.43284e-11 -2.66948e-07)
(-1.51665e-07 1.82345e-10 -2.66975e-07)
(-1.51641e-07 4.75748e-10 -2.67029e-07)
(-1.5163e-07 1.16635e-09 -2.67102e-07)
(-1.51412e-07 2.85527e-09 -2.67305e-07)
(-1.51259e-07 7.21812e-09 -2.67415e-07)
(-1.56535e-07 1.96679e-08 -2.64262e-07)
(-1.89376e-07 -1.11802e-11 -2.71431e-07)
(-1.89377e-07 2.53872e-11 -2.71434e-07)
(-1.89378e-07 7.44879e-11 -2.71438e-07)
(-1.8916e-07 1.69152e-10 -2.71562e-07)
(-1.883e-07 4.58332e-10 -2.72029e-07)
(-1.88629e-07 1.10498e-09 -2.71936e-07)
(-1.88639e-07 2.64501e-09 -2.72041e-07)
(-1.88283e-07 6.61315e-09 -2.72274e-07)
(-1.83908e-07 1.76648e-08 -2.71828e-07)
(-2.05084e-07 -8.5214e-12 -2.90433e-07)
(-2.05084e-07 2.81355e-11 -2.90438e-07)
(-2.05078e-07 8.12979e-11 -2.90447e-07)
(-2.0506e-07 1.97294e-10 -2.90469e-07)
(-2.05227e-07 4.47898e-10 -2.90468e-07)
(-2.05034e-07 1.06739e-09 -2.906e-07)
(-2.04925e-07 2.55097e-09 -2.90795e-07)
(-2.05116e-07 6.4337e-09 -2.90838e-07)
(-2.11292e-07 1.84332e-08 -2.87224e-07)
(-2.63026e-07 -3.60388e-13 -3.04439e-07)
(-2.63026e-07 2.8589e-11 -3.04442e-07)
(-2.63024e-07 7.92667e-11 -3.04448e-07)
(-2.63024e-07 1.9213e-10 -3.04462e-07)
(-2.63026e-07 4.57137e-10 -3.04496e-07)
(-2.63013e-07 1.08869e-09 -3.0459e-07)
(-2.62978e-07 2.63381e-09 -3.04736e-07)
(-2.62853e-07 6.82855e-09 -3.04662e-07)
(-2.64387e-07 2.02764e-08 -2.99816e-07)
(-3.25894e-07 -1.18401e-11 -2.96632e-07)
(-3.25881e-07 2.95477e-11 -2.96654e-07)
(-3.25882e-07 9.08175e-11 -2.96661e-07)
(-3.25886e-07 2.20329e-10 -2.96671e-07)
(-3.25902e-07 5.19238e-10 -2.96693e-07)
(-3.25917e-07 1.19691e-09 -2.9676e-07)
(-3.25855e-07 2.86637e-09 -2.96914e-07)
(-3.25448e-07 7.35867e-09 -2.96757e-07)
(-3.21431e-07 2.12936e-08 -2.92675e-07)
(-3.70201e-07 1.67428e-11 -2.58662e-07)
(-3.70191e-07 3.99957e-11 -2.58672e-07)
(-3.70193e-07 9.53518e-11 -2.58676e-07)
(-3.70201e-07 2.22214e-10 -2.58686e-07)
(-3.70221e-07 5.09692e-10 -2.58707e-07)
(-3.70249e-07 1.18002e-09 -2.58766e-07)
(-3.70202e-07 2.72881e-09 -2.58917e-07)
(-3.6976e-07 6.79137e-09 -2.59036e-07)
(-3.65606e-07 1.94892e-08 -2.57316e-07)
(-4.02132e-07 1.64954e-11 -1.94212e-07)
(-4.02132e-07 4.29312e-11 -1.94215e-07)
(-4.02136e-07 1.06733e-10 -1.94218e-07)
(-4.02148e-07 2.46196e-10 -1.94227e-07)
(-4.02172e-07 5.56706e-10 -1.94252e-07)
(-4.02211e-07 1.2584e-09 -1.94316e-07)
(-4.02232e-07 2.89289e-09 -1.94468e-07)
(-4.01898e-07 7.04208e-09 -1.94789e-07)
(-3.98298e-07 1.93213e-08 -1.95299e-07)
(-4.1883e-07 6.00868e-12 -1.38196e-07)
(-4.18833e-07 5.03713e-11 -1.38197e-07)
(-4.18841e-07 1.2762e-10 -1.38198e-07)
(-4.18858e-07 2.91529e-10 -1.38202e-07)
(-4.18896e-07 6.51822e-10 -1.38216e-07)
(-4.18966e-07 1.45489e-09 -1.38256e-07)
(-4.19052e-07 3.29532e-09 -1.38369e-07)
(-4.1885e-07 7.84881e-09 -1.38694e-07)
(-4.15769e-07 2.08718e-08 -1.40523e-07)
(-4.30653e-07 6.50375e-12 -1.11432e-07)
(-4.30656e-07 5.83151e-11 -1.11433e-07)
(-4.30664e-07 1.48919e-10 -1.11435e-07)
(-4.30682e-07 3.38586e-10 -1.11435e-07)
(-4.30721e-07 7.47889e-10 -1.11439e-07)
(-4.30797e-07 1.65468e-09 -1.11465e-07)
(-4.30909e-07 3.71034e-09 -1.11511e-07)
(-4.3084e-07 8.64134e-09 -1.11512e-07)
(-4.28906e-07 2.15834e-08 -1.10728e-07)
(-4.35589e-07 -2.52278e-12 -6.59198e-08)
(-4.35593e-07 5.52846e-11 -6.59211e-08)
(-4.35602e-07 1.44278e-10 -6.5923e-08)
(-4.35622e-07 3.23307e-10 -6.5924e-08)
(-4.35665e-07 7.10679e-10 -6.59286e-08)
(-4.35744e-07 1.55246e-09 -6.59507e-08)
(-4.35863e-07 3.4373e-09 -6.59832e-08)
(-4.35799e-07 8.00932e-09 -6.58799e-08)
(-4.33465e-07 2.08892e-08 -6.43814e-08)
(-4.4023e-07 -1.86248e-11 -1.2791e-08)
(-4.40237e-07 5.9284e-11 -1.27917e-08)
(-4.40247e-07 1.60024e-10 -1.27904e-08)
(-4.40268e-07 3.58595e-10 -1.27872e-08)
(-4.40311e-07 7.81615e-10 -1.27825e-08)
(-4.40394e-07 1.70118e-09 -1.27784e-08)
(-4.40512e-07 3.7645e-09 -1.27879e-08)
(-4.40388e-07 8.76437e-09 -1.28704e-08)
(-4.37395e-07 2.22722e-08 -1.39074e-08)
(-4.50842e-08 3.61919e-12 -3.18704e-07)
(-4.50861e-08 2.06149e-11 -3.18693e-07)
(-4.51177e-08 6.42225e-11 -3.18665e-07)
(-4.51892e-08 2.01907e-10 -3.18586e-07)
(-4.52988e-08 4.64403e-10 -3.18495e-07)
(-4.53674e-08 1.12237e-09 -3.18455e-07)
(-4.55423e-08 2.95555e-09 -3.18326e-07)
(-4.60533e-08 7.8132e-09 -3.17857e-07)
(-4.68468e-08 2.11697e-08 -3.17738e-07)
(-5.53233e-08 5.50653e-11 -3.03761e-07)
(-5.53087e-08 2.38039e-11 -3.03781e-07)
(-5.52896e-08 7.57375e-11 -3.03839e-07)
(-5.53105e-08 2.62444e-10 -3.03805e-07)
(-5.53772e-08 5.89299e-10 -3.03521e-07)
(-5.54662e-08 1.41389e-09 -3.03471e-07)
(-5.56507e-08 3.78056e-09 -3.03281e-07)
(-5.62615e-08 9.13112e-09 -3.02823e-07)
(-5.90279e-08 2.22147e-08 -3.0319e-07)
(-6.50041e-08 -8.82372e-12 -2.90669e-07)
(-6.50169e-08 1.31159e-10 -2.9059e-07)
(-6.56087e-08 2.73956e-10 -2.90335e-07)
(-6.57882e-08 2.65578e-10 -2.90228e-07)
(-6.58554e-08 5.10371e-10 -2.9029e-07)
(-6.52675e-08 1.25067e-09 -2.90402e-07)
(-6.51141e-08 3.52076e-09 -2.90283e-07)
(-6.61563e-08 9.60448e-09 -2.89778e-07)
(-6.9935e-08 2.60858e-08 -2.90498e-07)
(-8.62706e-08 1.01081e-11 -2.78337e-07)
(-8.62603e-08 8.30586e-11 -2.78325e-07)
(-8.61843e-08 1.6175e-10 -2.78254e-07)
(-8.61715e-08 2.56999e-10 -2.78189e-07)
(-8.62021e-08 6.1057e-10 -2.78169e-07)
(-8.63076e-08 1.60693e-09 -2.78179e-07)
(-8.63728e-08 4.28773e-09 -2.7809e-07)
(-8.64877e-08 1.12442e-08 -2.77799e-07)
(-8.78054e-08 3.06134e-08 -2.79139e-07)
(-1.03321e-07 3.9311e-11 -2.70855e-07)
(-1.03298e-07 4.07946e-11 -2.70861e-07)
(-1.03268e-07 1.05931e-10 -2.70881e-07)
(-1.03248e-07 2.78039e-10 -2.70895e-07)
(-1.03273e-07 7.0503e-10 -2.7086e-07)
(-1.03337e-07 1.77894e-09 -2.70769e-07)
(-1.03431e-07 4.55445e-09 -2.70567e-07)
(-1.03575e-07 1.19047e-08 -2.70029e-07)
(-1.04642e-07 3.23763e-08 -2.69476e-07)
(-1.13321e-07 1.10951e-11 -2.59773e-07)
(-1.13307e-07 4.97153e-11 -2.5978e-07)
(-1.13279e-07 1.37922e-10 -2.59793e-07)
(-1.13259e-07 3.38467e-10 -2.59798e-07)
(-1.13253e-07 8.14643e-10 -2.59779e-07)
(-1.13231e-07 2.02506e-09 -2.5973e-07)
(-1.13144e-07 5.10143e-09 -2.59612e-07)
(-1.12939e-07 1.31762e-08 -2.59478e-07)
(-1.13212e-07 3.54778e-08 -2.61049e-07)
(-1.25907e-07 3.22231e-11 -2.51643e-07)
(-1.25904e-07 6.01947e-11 -2.51644e-07)
(-1.25902e-07 1.5127e-10 -2.51639e-07)
(-1.25923e-07 3.68037e-10 -2.51625e-07)
(-1.25975e-07 9.07287e-10 -2.51588e-07)
(-1.26067e-07 2.25242e-09 -2.515e-07)
(-1.26174e-07 5.64871e-09 -2.51284e-07)
(-1.26061e-07 1.4415e-08 -2.50734e-07)
(-1.25979e-07 3.7853e-08 -2.50097e-07)
(-1.3539e-07 2.24135e-11 -2.52363e-07)
(-1.35389e-07 5.53012e-11 -2.52365e-07)
(-1.35386e-07 1.47424e-10 -2.52364e-07)
(-1.35386e-07 3.67603e-10 -2.52356e-07)
(-1.35392e-07 9.12058e-10 -2.52337e-07)
(-1.35396e-07 2.25205e-09 -2.52284e-07)
(-1.35325e-07 5.57801e-09 -2.52113e-07)
(-1.34783e-07 1.39876e-08 -2.51442e-07)
(-1.33123e-07 3.66689e-08 -2.5039e-07)
(-1.53192e-07 6.44123e-12 -2.59074e-07)
(-1.53189e-07 5.37291e-11 -2.59071e-07)
(-1.53176e-07 1.48798e-10 -2.59074e-07)
(-1.5314e-07 3.77857e-10 -2.59093e-07)
(-1.53078e-07 9.6126e-10 -2.59115e-07)
(-1.52963e-07 2.36892e-09 -2.59098e-07)
(-1.52685e-07 5.78403e-09 -2.58995e-07)
(-1.51871e-07 1.4231e-08 -2.5859e-07)
(-1.48119e-07 3.56966e-08 -2.58454e-07)
(-1.80825e-07 1.16193e-11 -2.67446e-07)
(-1.80831e-07 5.98097e-11 -2.67428e-07)
(-1.80822e-07 1.7135e-10 -2.67429e-07)
(-1.80775e-07 4.24637e-10 -2.67447e-07)
(-1.80742e-07 1.03677e-09 -2.67444e-07)
(-1.8067e-07 2.51213e-09 -2.67433e-07)
(-1.80508e-07 6.11558e-09 -2.67302e-07)
(-1.79777e-07 1.50692e-08 -2.66743e-07)
(-1.76436e-07 3.67448e-08 -2.66143e-07)
(-2.13639e-07 2.86641e-11 -2.8624e-07)
(-2.13636e-07 6.52531e-11 -2.86237e-07)
(-2.1362e-07 1.73556e-10 -2.86237e-07)
(-2.13585e-07 4.16323e-10 -2.86237e-07)
(-2.13518e-07 9.87461e-10 -2.86243e-07)
(-2.13362e-07 2.37626e-09 -2.86237e-07)
(-2.12932e-07 5.76631e-09 -2.86147e-07)
(-2.12028e-07 1.41798e-08 -2.85283e-07)
(-2.11152e-07 3.57985e-08 -2.82145e-07)
(-2.69614e-07 -4.88008e-12 -2.99184e-07)
(-2.69608e-07 6.06389e-11 -2.99182e-07)
(-2.69599e-07 1.738e-10 -2.9918e-07)
(-2.69582e-07 4.23842e-10 -2.99176e-07)
(-2.69542e-07 1.01571e-09 -2.9917e-07)
(-2.69431e-07 2.45266e-09 -2.99154e-07)
(-2.69067e-07 5.99034e-09 -2.9897e-07)
(-2.67715e-07 1.48076e-08 -2.97744e-07)
(-2.63374e-07 3.7609e-08 -2.93186e-07)
(-3.2603e-07 -6.25983e-12 -2.93002e-07)
(-3.26026e-07 6.53167e-11 -2.93004e-07)
(-3.2602e-07 1.88105e-10 -2.93001e-07)
(-3.26011e-07 4.54962e-10 -2.92988e-07)
(-3.25984e-07 1.07432e-09 -2.92962e-07)
(-3.25879e-07 2.54681e-09 -2.92914e-07)
(-3.25426e-07 6.12298e-09 -2.92692e-07)
(-3.23407e-07 1.49435e-08 -2.91391e-07)
(-3.15701e-07 3.78178e-08 -2.8636e-07)
(-3.67761e-07 3.10296e-12 -2.57148e-07)
(-3.67751e-07 7.79335e-11 -2.57143e-07)
(-3.67745e-07 2.04383e-10 -2.57133e-07)
(-3.67735e-07 4.80397e-10 -2.57118e-07)
(-3.67709e-07 1.11514e-09 -2.57087e-07)
(-3.67603e-07 2.59881e-09 -2.57034e-07)
(-3.67152e-07 6.10475e-09 -2.5688e-07)
(-3.65185e-07 1.45536e-08 -2.56197e-07)
(-3.57794e-07 3.59044e-08 -2.53741e-07)
(-3.95011e-07 -1.05068e-11 -2.03025e-07)
(-3.95005e-07 8.56369e-11 -2.03017e-07)
(-3.95e-07 2.31969e-10 -2.03002e-07)
(-3.94992e-07 5.39344e-10 -2.02975e-07)
(-3.94967e-07 1.22963e-09 -2.02927e-07)
(-3.94863e-07 2.81345e-09 -2.02852e-07)
(-3.94449e-07 6.51635e-09 -2.02725e-07)
(-3.92846e-07 1.52885e-08 -2.02459e-07)
(-3.87866e-07 3.68938e-08 -2.01638e-07)
(-4.13197e-07 1.74187e-11 -1.47343e-07)
(-4.1319e-07 1.08674e-10 -1.47333e-07)
(-4.13185e-07 2.80404e-10 -1.47312e-07)
(-4.13178e-07 6.44054e-10 -1.47272e-07)
(-4.13155e-07 1.45267e-09 -1.47197e-07)
(-4.13071e-07 3.27818e-09 -1.47075e-07)
(-4.1273e-07 7.43622e-09 -1.46884e-07)
(-4.11434e-07 1.71168e-08 -1.46719e-07)
(-4.07731e-07 4.01898e-08 -1.47647e-07)
(-4.27201e-07 2.45229e-11 -1.10101e-07)
(-4.27198e-07 1.24746e-10 -1.101e-07)
(-4.27191e-07 3.15358e-10 -1.10094e-07)
(-4.27173e-07 7.17026e-10 -1.10082e-07)
(-4.2713e-07 1.59986e-09 -1.10064e-07)
(-4.27012e-07 3.57403e-09 -1.10036e-07)
(-4.26647e-07 8.03942e-09 -1.09945e-07)
(-4.25539e-07 1.82603e-08 -1.09548e-07)
(-4.23008e-07 4.20391e-08 -1.08196e-07)
(-4.34263e-07 2.09642e-11 -6.65019e-08)
(-4.34263e-07 1.24148e-10 -6.65022e-08)
(-4.34254e-07 3.1498e-10 -6.64983e-08)
(-4.3423e-07 7.10072e-10 -6.64896e-08)
(-4.34176e-07 1.56841e-09 -6.64743e-08)
(-4.34035e-07 3.4662e-09 -6.64483e-08)
(-4.33621e-07 7.732e-09 -6.63573e-08)
(-4.32341e-07 1.75863e-08 -6.59194e-08)
(-4.29201e-07 4.13463e-08 -6.40226e-08)
(-4.36181e-07 2.81828e-11 -1.92306e-08)
(-4.3618e-07 1.36723e-10 -1.92273e-08)
(-4.36173e-07 3.44952e-10 -1.92144e-08)
(-4.36153e-07 7.73834e-10 -1.9187e-08)
(-4.36106e-07 1.69919e-09 -1.91322e-08)
(-4.35981e-07 3.73513e-09 -1.9032e-08)
(-4.35583e-07 8.28877e-09 -1.88729e-08)
(-4.3429e-07 1.87068e-08 -1.87074e-08)
(-4.31211e-07 4.34038e-08 -1.86882e-08)
(-5.54004e-08 3.29195e-07 -1.37892e-07)
(-5.42166e-08 3.26966e-07 -1.31418e-07)
(-5.308e-08 3.2173e-07 -1.23819e-07)
(-4.99308e-08 3.16191e-07 -1.13926e-07)
(-4.86846e-08 3.09722e-07 -1.03692e-07)
(-4.76498e-08 3.03371e-07 -9.24298e-08)
(-4.80439e-08 2.95821e-07 -8.12704e-08)
(-4.94316e-08 2.87524e-07 -7.11098e-08)
(-5.05534e-08 2.78149e-07 -6.2617e-08)
(-5.24947e-08 2.66833e-07 -5.21083e-08)
(-5.3257e-08 2.54266e-07 -4.29825e-08)
(-5.51982e-08 2.40851e-07 -3.50519e-08)
(-5.53446e-08 2.28507e-07 -2.7489e-08)
(-5.70752e-08 2.15789e-07 -2.19019e-08)
(-5.74471e-08 2.04408e-07 -1.75267e-08)
(-5.77138e-08 1.92677e-07 -1.38999e-08)
(-5.80702e-08 1.81358e-07 -1.06272e-08)
(-5.88841e-08 1.70724e-07 -7.83664e-09)
(-6.075e-08 1.60809e-07 -5.29666e-09)
(-4.9394e-08 3.29256e-07 -1.25179e-07)
(-5.00521e-08 3.25136e-07 -1.19384e-07)
(-4.80034e-08 3.19933e-07 -1.1093e-07)
(-4.58323e-08 3.14478e-07 -1.01418e-07)
(-4.55008e-08 3.0801e-07 -9.14278e-08)
(-4.5409e-08 3.0172e-07 -8.12458e-08)
(-4.6531e-08 2.94506e-07 -7.19958e-08)
(-4.7701e-08 2.86616e-07 -6.43177e-08)
(-4.91211e-08 2.78279e-07 -5.66585e-08)
(-5.00959e-08 2.69149e-07 -4.87695e-08)
(-5.13151e-08 2.58086e-07 -4.13031e-08)
(-5.13691e-08 2.47737e-07 -3.27601e-08)
(-5.1615e-08 2.36136e-07 -2.70837e-08)
(-5.2526e-08 2.22975e-07 -2.10545e-08)
(-5.42396e-08 2.10452e-07 -1.63486e-08)
(-5.46335e-08 1.98893e-07 -1.28018e-08)
(-5.45171e-08 1.88165e-07 -9.97202e-09)
(-5.4518e-08 1.77608e-07 -7.31932e-09)
(-5.46523e-08 1.69271e-07 -5.50104e-09)
(-4.84333e-08 3.2998e-07 -1.24746e-07)
(-4.80638e-08 3.2684e-07 -1.18236e-07)
(-4.79265e-08 3.21158e-07 -1.11628e-07)
(-4.42572e-08 3.16432e-07 -1.01896e-07)
(-4.29344e-08 3.10109e-07 -9.18723e-08)
(-4.35688e-08 3.03487e-07 -8.12347e-08)
(-4.46136e-08 2.96171e-07 -7.14098e-08)
(-4.63148e-08 2.88154e-07 -6.26452e-08)
(-4.80325e-08 2.79606e-07 -5.46314e-08)
(-4.96659e-08 2.70713e-07 -4.63677e-08)
(-5.0358e-08 2.59225e-07 -3.80405e-08)
(-5.11415e-08 2.4666e-07 -3.01662e-08)
(-5.17925e-08 2.33498e-07 -2.33466e-08)
(-5.32912e-08 2.20707e-07 -1.79868e-08)
(-5.40599e-08 2.09061e-07 -1.38635e-08)
(-5.43471e-08 1.97885e-07 -1.0673e-08)
(-5.48261e-08 1.86405e-07 -7.80138e-09)
(-5.55494e-08 1.74922e-07 -5.42912e-09)