/*--------------------------------*- C++ -*----------------------------------*\
| =========                 |                                                 |
| \\      /  F ield         | foam-extend: Open Source CFD                    |
|  \\    /   O peration     | Version:     3.1                                |
|   \\  /    A nd           | Web:         http://www.extend-project.de       |
|    \\/     M anipulation  |                                                 |
\*---------------------------------------------------------------------------*/
FoamFile
{
    version     2.0;
    format      ascii;
    class       volScalarField;
    location    "345600";
    object      DUGrad;
}
// * * * * * * * * * * * * * * * * * * * * * * * * * * * * * * * * * * * * * //

dimensions      [0 0 0 0 0 0 0];

internalField   nonuniform List<scalar> 
23248
(
0.000153202
0.000153225
0.000153252
0.000153486
0.000154192
0.000154208
0.000157986
0.000184756
0.000324178
0.000138018
0.000138036
0.000138177
0.000138803
0.000139215
0.000139971
0.000143389
0.000159683
0.000212011
0.000143939
0.000143946
0.000143933
0.000143881
0.000143783
0.000143849
0.000147103
0.000175764
0.000327917
0.000118021
0.00011803
0.000118047
0.000118101
0.000118298
0.000118946
0.000122243
0.000139656
0.000200043
0.000102634
0.00010265
0.000102657
0.000102642
0.000102707
0.000103339
0.000108744
0.000144393
0.000305016
9.85689e-05
9.85676e-05
9.8568e-05
9.86079e-05
9.87471e-05
9.94142e-05
0.000103007
0.00012153
0.000184598
0.000151748
0.000151782
0.00015176
0.000151684
0.000151588
0.000151393
0.000152863
0.000172488
0.0003007
0.000132799
0.000132777
0.000132776
0.000132813
0.000132941
0.000133403
0.000135552
0.000146762
0.000192055
0.000245387
0.000245392
0.000245382
0.000245319
0.000245762
0.000245676
0.00024685
0.000257108
0.000305464
0.00013588
0.000135863
0.000135894
0.000136005
0.000136259
0.000137042
0.00013974
0.000149898
0.000186172
0.000117436
0.000117417
0.000117402
0.000117408
0.00011754
0.00011778
0.000120871
0.00014639
0.000319282
0.000100004
0.00010001
0.000100006
0.000100016
0.000100072
0.000100536
0.000103201
0.000116544
0.000160326
0.000127365
0.000127357
0.000127339
0.000127318
0.000127135
0.00012693
0.000130236
0.000156251
0.000285578
0.00013009
0.000130104
0.00013012
0.000130153
0.000130278
0.000130808
0.000133167
0.000144043
0.000179286
0.000162701
0.000162597
0.00016253
0.000162481
0.000162392
0.000164843
0.000166212
0.000182734
0.000272335
0.000178595
0.000178655
0.000178683
0.000178703
0.000178605
0.000178658
0.000179207
0.000181694
0.00019031
0.000177765
0.000177752
0.000178016
0.000177537
0.000177248
0.000177147
0.000179961
0.000200851
0.000291221
0.000139928
0.000139968
0.000139993
0.000140005
0.00014012
0.000140605
0.000143207
0.000155159
0.000191771
0.000189203
0.000188928
0.000189265
0.000189244
0.000189219
0.00018841
0.00017288
0.000207341
0.000305434
0.000169512
0.000169604
0.000169732
0.000169853
0.000169899
0.000169472
0.000170624
0.000179718
0.000205045
0.000143835
0.00014387
0.00014451
0.000144272
0.000144313
0.00014555
0.000177666
0.000183044
0.000298947
0.000192405
0.000192461
0.000192603
0.000192679
0.000192774
0.000192456
0.000179108
0.000201196
0.000223999
0.000290616
0.000290535
0.000290419
0.000290188
0.00029004
0.000298873
0.00026389
0.000265304
0.000377419
0.00027751
0.000277522
0.000277497
0.000277498
0.000277644
0.000278574
0.000279977
0.000284009
0.000288929
0.000454159
0.000454125
0.000454116
0.000454009
0.000453759
0.000451165
0.000450072
0.000466801
0.00053207
0.000381195
0.000381319
0.000381348
0.000381433
0.000381655
0.000382284
0.000384091
0.000387686
0.000386714
0.000511315
0.000511628
0.000511641
0.000511503
0.000511191
0.000510679
0.000511616
0.000528283
0.000555309
0.000508461
0.000508479
0.000508482
0.000508479
0.000508468
0.000508403
0.000507958
0.000504766
0.000478552
0.000542064
0.000540901
0.000540818
0.000540677
0.000540424
0.000540395
0.000544207
0.000576074
0.000700812
0.00044268
0.000442704
0.000442718
0.000442748
0.000442839
0.000443131
0.000444096
0.000448115
0.000469025
0.000487332
0.000489944
0.000489787
0.000489672
0.000489539
0.00048989
0.000495437
0.000538265
0.000742013
0.000387914
0.000388052
0.000388112
0.000388156
0.000388265
0.000388527
0.000389673
0.000402592
0.00046993
0.000499919
0.000499875
0.000499844
0.000499876
0.000500123
0.000501554
0.00050916
0.000555705
0.000774308
0.000359952
0.00035996
0.000359971
0.000360011
0.000360208
0.000361788
0.000365054
0.000381534
0.000445346
0.000306443
0.000306302
0.00030608
0.000305654
0.000305059
0.000305815
0.00031912
0.000406275
0.000736119
0.000306391
0.000306416
0.000306357
0.000306219
0.000306073
0.00030651
0.000311155
0.000337114
0.000416746
0.00033107
0.000331107
0.000331096
0.000331079
0.000331178
0.00033211
0.000338605
0.000379889
0.000589347
0.000277798
0.00027778
0.000277784
0.000277816
0.000277977
0.0002788
0.00028326
0.000306481
0.000393509
0.000144271
0.000144244
0.000144173
0.000144802
0.000150047
0.000147438
0.000150884
0.000184264
0.000321299
0.000116803
0.000116064
0.000111299
0.000110618
0.000111225
0.000115682
0.000132037
0.000151062
0.000374788
0.000143001
0.000142665
0.000174208
0.000176385
0.000181893
0.000145468
0.000152001
0.000229114
0.000415656
0.000143418
0.000144515
0.000138716
0.000137786
0.000137667
0.000146362
0.000155466
0.000203167
0.000421489
0.000132211
0.000132325
0.000131825
0.00013134
0.000131502
0.000132971
0.000143348
0.000202191
0.000420012
0.000253448
0.000253004
0.00025182
0.000251704
0.000252365
0.000253056
0.000258204
0.000298202
0.000444279
0.000102557
0.000102353
0.000102103
0.000102256
0.000103199
0.000107132
0.000127943
0.000216215
0.000510665
0.000258015
0.000258018
0.00025808
0.000257201
0.00025755
0.000257917
0.000265055
0.000314046
0.000532165
0.000178605
0.00017858
0.000178388
0.000177857
0.000177413
0.000178251
0.000192045
0.000258626
0.000509716
0.000390951
0.000390964
0.000390937
0.000394204
0.000370313
0.000380634
0.000386296
0.000416041
0.00054605
0.000322804
0.000322781
0.000322549
0.000322061
0.000317923
0.000320507
0.000323178
0.000360439
0.000552771
0.000295324
0.000295256
0.000295189
0.000295048
0.000294777
0.000295388
0.000302327
0.000352095
0.000597568
0.000235866
0.000235524
0.000235507
0.000235519
0.000235784
0.000237824
0.000247841
0.000308306
0.000571129
0.00028874
0.000289287
0.000289314
0.000289335
0.000289404
0.000290477
0.000299144
0.00033947
0.000538025
0.000280395
0.000280417
0.000280417
0.000280443
0.000280689
0.000282188
0.000290268
0.00033142
0.000511169
0.000239104
0.000239102
0.00023905
0.000238991
0.000239167
0.000240954
0.000251292
0.000301526
0.000485279
0.00013551
0.000135493
0.000135488
0.000135644
0.000136566
0.000140607
0.00016009
0.000234582
0.000443792
0.000227591
0.000227597
0.000227625
0.000227719
0.000228144
0.000230793
0.00024284
0.000295108
0.000476951
0.000193676
0.000193648
0.00019358
0.000193507
0.000193775
0.000196342
0.000210628
0.000273961
0.00047719
0.000153515
0.000153454
0.000153601
0.000154837
0.000154903
0.000155952
0.00015881
0.000174513
0.000220621
0.000118657
0.000118921
0.00011989
0.000119951
0.000116534
0.000119885
0.000125401
0.000139621
0.00020229
0.00012881
0.000128399
0.000132314
0.000132057
0.000133592
0.000129865
0.00013405
0.000167253
0.000250921
0.0001374
0.000137142
0.000136081
0.000134022
0.000134146
0.000136464
0.000141576
0.000170492
0.000260829
0.000141692
0.000141976
0.000142544
0.000143
0.000143112
0.000144137
0.000150718
0.000182671
0.00028846
9.82187e-05
9.83069e-05
9.84824e-05
9.85367e-05
9.90424e-05
0.000101464
0.000112545
0.00016028
0.000288306
0.000194446
0.000194575
0.000194726
0.000194807
0.000195074
0.000196481
0.000203251
0.000234469
0.000332716
0.000109821
0.000109869
0.000109914
0.000110072
0.000110748
0.000113348
0.000124615
0.000170551
0.000290201
0.000182061
0.000182111
0.000182127
0.000182137
0.000182415
0.0001838
0.000190542
0.000220502
0.000321987
0.000189506
0.000189506
0.000189517
0.000189269
0.000189253
0.00019105
0.00019854
0.000229825
0.000310377
0.000291331
0.000291325
0.000291314
0.000291376
0.000291752
0.000292301
0.000296495
0.000318211
0.00036947
0.000276226
0.000276222
0.000276222
0.000276237
0.00027635
0.000277059
0.000280654
0.000299059
0.000360047
0.000209689
0.000209662
0.000209651
0.000209675
0.000209843
0.000210717
0.000215781
0.000243232
0.000335654
0.000231571
0.000231574
0.000231598
0.000231657
0.000231865
0.000232844
0.000237627
0.000261098
0.00034425
0.00023759
0.000237603
0.000237633
0.000237711
0.000237956
0.000238884
0.000243596
0.000266162
0.00033646
0.000197714
0.000197711
0.000197707
0.000197751
0.000198038
0.00019966
0.00020717
0.000238169
0.000322574
0.000149268
0.000149262
0.000149248
0.000149276
0.000149602
0.00015163
0.000161933
0.000202601
0.000301431
0.000198583
0.000198594
0.000198647
0.000198801
0.000199322
0.000201291
0.000209233
0.000240004
0.000324142
0.000161712
0.000161731
0.000161747
0.000161831
0.000162265
0.000164388
0.00017415
0.000212403
0.000308256
0.000176967
0.000182595
0.000197848
0.000210656
0.000214417
0.000218068
0.0002138
0.000199753
0.00020868
0.000209005
0.000207461
0.00020883
0.000188516
0.000191009
0.000171023
0.000165766
0.000155856
0.000145909
0.000165957
0.000181689
0.000194058
0.000200346
0.000205888
0.000210294
0.000208232
0.000201467
0.000179937
0.0001778
0.000182059
0.00018495
0.000201663
0.000191384
0.000194647
0.000180584
0.000162876
0.000155381
0.000145029
0.000145593
0.000182359
0.000180054
0.00022518
0.000192433
0.000193112
0.000190494
0.000186972
0.00017838
0.000177237
0.000181959
0.000198202
0.000203216
0.000191311
0.00018969
0.000174846
0.000167331
0.000166173
0.000164311
0.000144851
0.000189958
0.000186458
0.000175535
0.000179459
0.000168937
0.000185504
0.000174793
0.000160908
0.000150093
0.000170161
0.000204906
0.000176031
0.000181835
0.000188894
0.000182157
0.000169965
0.000158966
0.000152302
0.000147488
0.000163017
0.000168074
0.000177808
0.000175436
0.000187257
0.000177493
0.000167632
0.00016136
0.00015765
0.000195016
0.000185112
0.000217971
0.000193924
0.000176542
0.000176305
0.000169312
0.000177199
0.000164234
0.000154494
0.000156982
0.000157604
0.000174617
0.000166968
0.000176562
0.000160309
0.000156602
0.000160463
0.000164075
0.000156215
0.00016911
0.000201341
0.000166014
0.000177225
0.000182492
0.000180559
0.000163503
0.000159875
0.00015723
0.00014051
0.00015714
0.000173537
0.000180303
0.000180832
0.000173925
0.000173288
0.000180577
0.000193005
0.000168952
0.000187054
0.000198756
0.000193331
0.000184454
0.000201492
0.000168005
0.000181401
0.000176537
0.000165894
0.000142151
0.000147278
0.000170622
0.000168921
0.000166867
0.000179023
0.000177821
0.000200863
0.00019731
0.000166802
0.000162207
0.000166611
0.000168551
0.000187064
0.000191161
0.00020043
0.000207658
0.000163591
0.000164497
0.000141051
0.000149065
0.000167818
0.000181641
0.000180184
0.000192724
0.000209096
0.000236613
0.000216415
0.000162592
0.000152367
0.000152914
0.000182094
0.000189761
0.000196567
0.000205256
0.000170178
0.000177698
0.000173957
0.000131342
0.000142901
0.000165436
0.000161342
0.000176061
0.000185631
0.000198057
0.000197489
0.000192415
0.000183165
0.000172223
0.000158093
0.000152731
0.000154207
0.000196517
0.000200284
0.000203313
0.000181845
0.000169965
0.000137031
0.000145979
0.00016434
0.000176294
0.000198869
0.000209892
0.000223531
0.000210132
0.000186931
0.000162613
0.000148506
0.000134383
0.000139962
0.000190796
0.000197578
0.000196938
0.00020029
0.000179396
0.000184822
0.000129927
0.000148933
0.00015936
0.00016806
0.000202436
0.000204029
0.000226483
0.000196777
0.000182067
0.00016366
0.000169168
0.000136725
0.000134157
0.000157098
0.000156602
0.000195011
0.000204711
0.000202759
0.000192713
0.000138304
0.00016795
0.000179364
0.000174404
0.0001872
0.000211888
0.000202282
0.000190223
0.000168561
0.000158484
0.00014793
0.000142288
0.000132159
0.000147283
0.000184399
0.000197366
0.000192984
0.000175817
0.000194609
0.000146345
0.000159339
0.000168611
0.00016583
0.000211223
0.000221769
0.000179661
0.000221381
0.000181107
0.000162818
0.000132219
0.000133821
0.000134793
0.00014246
0.000162358
0.000152085
0.00017856
0.000194124
0.000205886
0.000154913
0.000181991
0.000174636
0.000160833
0.000178069
0.000196891
0.000183704
0.000182069
0.000176234
0.000128114
0.000131097
0.000142042
0.000140433
0.000131946
0.00014762
0.000167183
0.000187291
0.000185713
0.000188453
0.000150231
0.0001625
0.000168061
0.000173916
0.000205848
0.000167204
0.000213196
0.000143059
0.000169294
0.000138325
0.0001187
0.000115517
0.000132468
0.000133348
0.000138324
0.000151204
0.000147648
0.000153262
0.000188832
0.000169288
0.000167494
0.00014551
0.000177299
0.000164896
0.000201881
0.000154513
0.000174369
0.000131417
0.000110808
0.000111893
0.000131628
0.000131945
0.000147619
0.000140147
0.000146476
0.000164677
0.000187151
0.000196336
0.000148228
0.00014378
0.000155271
0.000177753
0.000156652
0.00018331
0.000132447
0.000157818
0.000119347
0.000119623
0.000122656
0.00011106
0.000112892
0.000128503
0.000134685
0.000142965
0.000142423
0.000153398
0.000166395
0.000170948
0.000147075
0.000158791
0.000149476
0.000154566
0.000132584
0.000143532
0.000115317
0.000124607
0.000109653
0.000100411
0.000112027
0.000118654
0.000140672
0.000162521
0.000145725
0.000159049
0.000175572
0.000196051
0.000133944
0.000140323
0.000162079
0.000140814
0.000175812
0.000117416
0.000140028
0.000114437
0.000111208
0.000106854
0.000113516
0.000115218
0.000106162
0.000109282
0.00014736
0.000147538
0.000142535
0.000161494
0.000171865
0.00012781
0.000138145
0.000145621
0.000133248
0.000137428
0.000130881
9.74082e-05
9.93493e-05
9.77244e-05
0.000105341
0.000104994
0.000104799
0.000116065
0.000129854
0.000139789
0.0001533
0.000158485
0.00017625
0.000193716
0.000124648
0.000139738
0.000120006
0.000157138
0.000104549
0.000120531
9.31142e-05
0.000104755
0.000105759
0.000106246
0.000102435
0.000112912
0.000117815
0.000111047
0.000127993
0.000149787
0.000151691
0.00015754
0.000177736
0.000127594
0.000128293
0.000154365
0.000116759
0.00012079
8.61598e-05
8.25314e-05
8.39225e-05
0.000108368
0.000108001
0.000100664
0.000114214
0.000117719
0.000117702
0.000134512
0.000149787
0.000160127
0.000180153
0.000199398
0.000138047
0.000106706
0.000130582
9.60818e-05
0.000113621
8.30871e-05
8.0819e-05
8.75968e-05
0.000108456
0.000111064
0.000101745
0.000109696
0.000116203
0.000126387
0.000115209
0.000144536
0.000150833
0.000154755
0.000172207
0.000128429
0.000112577
9.78112e-05
0.000115016
8.27227e-05
7.29088e-05
7.18532e-05
8.35299e-05
9.36196e-05
9.71483e-05
0.00010269
0.000127325
0.000127045
0.000114035
0.000122624
0.0001434
0.000164008
0.000182359
0.000204099
0.000112997
0.000118578
8.99957e-05
0.000111653
7.70837e-05
7.5052e-05
7.21925e-05
7.76264e-05
9.10071e-05
0.000104653
0.000107565
0.000104627
0.000121495
0.000106371
0.000132742
0.000151862
0.000147333
0.000159738
0.00017716
0.000125678
0.000110166
0.000100241
6.60303e-05
7.10021e-05
6.59695e-05
6.53214e-05
7.15062e-05
7.34188e-05
8.79458e-05
0.000101055
0.000107036
0.000102919
0.000108522
0.000136593
0.000147813
0.000167675
0.000184136
0.000205284
0.00012306
8.76883e-05
9.18792e-05
7.01159e-05
6.85087e-05
6.35808e-05
6.1656e-05
7.06269e-05
7.00752e-05
9.32913e-05
0.00010383
0.000112993
0.000113579
0.000119096
0.000109543
0.000148475
0.000148785
0.000168462
0.000205117
0.000118314
9.62188e-05
8.12792e-05
5.71804e-05
5.4489e-05
6.04485e-05
5.45834e-05
5.53824e-05
7.59437e-05
7.98733e-05
9.08256e-05
0.000119099
0.000115221
0.000124415
0.000146781
0.000152854
0.000159992
0.000173756
0.000211291
0.000100653
9.25198e-05
6.99526e-05
5.73193e-05
6.15567e-05
5.78375e-05
5.22784e-05
5.47959e-05
7.36402e-05
6.873e-05
9.92101e-05
0.00010491
0.000117313
0.00011587
0.000107016
0.000151045
0.000150448
0.000168956
0.000204933
0.000102053
8.71762e-05
7.70407e-05
6.68493e-05
5.33425e-05
4.99227e-05
4.91199e-05
5.79864e-05
5.79166e-05
8.23289e-05
9.67865e-05
0.000112217
0.000122143
0.000136489
0.000142904
0.000161033
0.000158138
0.000172233
0.000197634
0.000102363
8.42019e-05
6.63053e-05
5.90853e-05
5.20134e-05
5.40575e-05
4.93986e-05
5.04056e-05
5.54777e-05
7.44741e-05
7.82222e-05
0.000104229
0.000119172
0.000122803
0.000134391
0.000167438
0.000151693
0.000164174
0.000195911
9.69795e-05
9.45735e-05
8.01301e-05
7.3657e-05
5.85159e-05
5.34644e-05
5.14663e-05
5.62648e-05
7.38011e-05
8.79293e-05
0.000106706
0.000128561
0.000136247
0.000140217
0.000165374
0.000182293
0.000157664
0.000179654
0.000196618
9.45687e-05
8.81531e-05
8.04316e-05
5.89729e-05
5.79513e-05
4.89269e-05
5.31956e-05
5.2786e-05
5.98801e-05
7.49529e-05
9.6523e-05
0.000118394
0.00013259
0.000137862
0.000149141
0.000165073
0.000163385
0.000164335
0.000183551
9.12292e-05
9.3923e-05
9.56533e-05
7.47173e-05
7.06904e-05
6.43439e-05
6.41403e-05
6.81975e-05
8.58105e-05
0.000101563
0.000124753
0.000140006
0.000152149
0.000159591
0.000172631
0.000165023
0.000165059
0.0001767
0.000188485
8.68385e-05
9.49252e-05
9.03005e-05
7.60771e-05
5.667e-05
6.70559e-05
5.53264e-05
6.5893e-05
7.42574e-05
9.39783e-05
0.000112611
0.000136662
0.000147919
0.000152811
0.000159184
0.000166313
0.000159601
0.000157628
0.000182775
9.67885e-05
8.97464e-05
9.50916e-05
9.80223e-05
9.112e-05
8.18067e-05
8.0456e-05
9.19888e-05
9.82011e-05
0.000119104
0.000143916
0.000155201
0.000166059
0.00017294
0.000212204
0.000179999
0.000152367
0.000171193
0.000186363
9.51587e-05
8.55413e-05
9.03625e-05
8.66921e-05
8.36902e-05
7.22667e-05
8.36879e-05
8.18892e-05
0.000105978
9.93071e-05
0.000128143
0.000151797
0.00015886
0.00015837
0.000161462
0.000157441
0.000145656
0.000165365
0.000180771
0.000293174
0.000428734
0.00030016
0.000261461
0.000293102
0.000266611
0.000294507
0.000238811
0.000244555
0.000247811
0.000289312
0.000217716
0.000236603
0.000220422
0.000204491
0.000174795
0.000184086
0.000198505
0.000180111
0.000324039
0.000320845
0.000258735
0.000237091
0.000265086
0.00026365
0.000257872
0.000249973
0.000249785
0.00022296
0.000230892
0.000204432
0.000225908
0.000221383
0.000187663
0.00016239
0.00017882
0.000184032
0.000171403
0.000395802
0.00034691
0.000240554
0.000244414
0.000273892
0.000274721
0.000268456
0.000243533
0.000252638
0.000248845
0.000234361
0.000210814
0.000229752
0.000211932
0.000196443
0.000187018
0.000180406
0.000178722
0.000172234
0.000293099
0.000278626
0.000230245
0.00023171
0.000248796
0.000238084
0.000235445
0.000266947
0.000258151
0.000225314
0.000216415
0.000205081
0.00022
0.000199968
0.00017503
0.000205469
0.000180004
0.000170388
0.000160028
0.00029997
0.000345608
0.00025567
0.000236873
0.00025322
0.000217175
0.000266828
0.000211664
0.000263576
0.00023724
0.000226895
0.000207051
0.000220264
0.000205622
0.000185906
0.000199455
0.000179234
0.000170011
0.000170616
0.000283528
0.000274794
0.000243385
0.000227666
0.000223069
0.000222898
0.000210663
0.000221532
0.000232431
0.000230337
0.000253366
0.000200379
0.00020771
0.00021296
0.000180449
0.000199514
0.000174831
0.000166106
0.000148334
0.000356864
0.000289735
0.000213583
0.000210001
0.000233737
0.000248043
0.000219155
0.000232264
0.000241456
0.000192005
0.000210755
0.000213395
0.00020321
0.00019415
0.000196404
0.000190697
0.000171605
0.000186825
0.00017363
0.00028447
0.000278331
0.000239325
0.000206877
0.000207259
0.0002186
0.000204606
0.00020469
0.000207242
0.000218237
0.00021991
0.000213315
0.000201385
0.000195213
0.000184604
0.000190674
0.000182187
0.000199828
0.00014086
0.00031669
0.00029783
0.000244207
0.000230366
0.000215913
0.000206809
0.00019184
0.000205752
0.000231024
0.000192195
0.000208535
0.000226021
0.000205904
0.000213188
0.000185881
0.000184172
0.000175083
0.000156945
0.000139346
0.000290414
0.000278513
0.000242574
0.000205294
0.000201694
0.000193541
0.000186712
0.000190191
0.000191507
0.000199032
0.000214207
0.000227129
0.000198386
0.00019035
0.000189115
0.000196631
0.000186237
0.00016811
0.000141111
0.000224743
0.000348016
0.000238399
0.000276075
0.000221789
0.000216392
0.000219213
0.000212641
0.000221583
0.000192231
0.000214274
0.000214779
0.000190692
0.000209232
0.000191659
0.000214095
0.000170981
0.000143128
0.000129425
0.000246936
0.000271833
0.000220995
0.00020785
0.000194968
0.000179645
0.000173084
0.00018238
0.000183912
0.000185198
0.000218452
0.000227652
0.000187753
0.000188426
0.000200123
0.000228102
0.000173525
0.000131702
0.000130865
0.000382906
0.000283639
0.000235264
0.000265884
0.000221887
0.000210574
0.000202401
0.000208874
0.000217478
0.000193567
0.000193411
0.000189232
0.000195681
0.000198508
0.000216812
0.000184832
0.000158296
0.000135289
0.00013017
0.000256514
0.000243941
0.000197773
0.000207816
0.000204894
0.000180045
0.000174717
0.000177496
0.000184748
0.000189579
0.000215102
0.000195042
0.000185864
0.000191004
0.000214596
0.000196435
0.000131527
0.000131431
0.000131885
0.000300995
0.000258478
0.000230695
0.000268667
0.000208063
0.000225763
0.000218397
0.000205162
0.000204844
0.000189371
0.000220867
0.000208548
0.000197927
0.000209037
0.000207983
0.000181431
0.000136385
0.000142183
0.000158308
0.000248906
0.000230004
0.000191974
0.000201956
0.000204621
0.000193832
0.000181933
0.000186203
0.000180242
0.000177294
0.000183438
0.000206999
0.000178243
0.0001947
0.000214014
0.000157518
0.000134799
0.000138809
0.0001464
0.00033472
0.000244535
0.000238861
0.000231438
0.000226877
0.000224047
0.000207887
0.000223174
0.000170268
0.000165245
0.000217929
0.000200017
0.000193498
0.000196595
0.000183255
0.000156652
0.000152132
0.00016824
0.000177411
0.000276642
0.000220541
0.000201143
0.000194387
0.000200098
0.00019479
0.000185673
0.000180791
0.00017743
0.00018928
0.000184802
0.000187224
0.000171888
0.000192041
0.000174267
0.000147453
0.00014476
0.000157993
0.000161017
0.000318165
0.000268637
0.000208428
0.000302758
0.000234288
0.000232904
0.000317943
0.000231627
0.000228028
0.000197439
0.000248274
0.000188867
0.000218253
0.000195248
0.000168796
0.000159125
0.000167335
0.000183283
0.000171533
0.000273599
0.000232417
0.000198642
0.0002112
0.000193009
0.000197494
0.000202399
0.000193997
0.000178925
0.000176126
0.000181213
0.000169046
0.000187181
0.000179205
0.000167339
0.000140399
0.000165196
0.000173843
0.000170337
0.000345946
0.000265277
0.000217459
0.000253056
0.0002783
0.000232883
0.000249188
0.000264601
0.000202473
0.00021875
0.000221806
0.000176462
0.000185446
0.000178556
0.000153497
0.000159585
0.000186737
0.000178205
0.00016109
0.000301779
0.00023302
0.000211515
0.000224714
0.000199366
0.000215295
0.00020962
0.000208971
0.000185057
0.00018189
0.00017529
0.000162663
0.000164735
0.000169294
0.000140995
0.000153191
0.000171909
0.000177919
0.000159492
0.000378644
0.000323297
0.000315218
0.000253755
0.00031617
0.000271085
0.000243648
0.000260209
0.000201989
0.00016064
0.000223205
0.000182639
0.000198572
0.000172139
0.000147341
0.000165855
0.000180268
0.00016458
0.000138791
0.000357705
0.000290407
0.000259851
0.000249824
0.000225113
0.000235768
0.000220574
0.000208799
0.000188764
0.00017869
0.000167346
0.000156236
0.000185779
0.000162584
0.000143356
0.000156454
0.000168731
0.000156988
0.000126859
0.000446323
0.00038629
0.000351946
0.000328608
0.00038147
0.000284029
0.000305658
0.000262363
0.000215757
0.000210215
0.000219997
0.000174079
0.000175648
0.000159474
0.000150918
0.000156479
0.000161523
0.000149813
0.000136455
0.000456278
0.000380514
0.000312156
0.000292168
0.000311878
0.000252206
0.000250403
0.000239127
0.000200576
0.000171338
0.000175355
0.000163548
0.000179951
0.000148132
0.000156731
0.000160907
0.000158666
0.000150137
0.000133209
0.000577941
0.000497584
0.000471944
0.000497433
0.000347813
0.000404305
0.00030773
0.000296894
0.000260875
0.000264119
0.00025609
0.00015303
0.000145761
0.000160971
0.000156198
0.000152683
0.000154597
0.000151461
0.000137004
0.000528728
0.000444869
0.000406447
0.000348351
0.000336561
0.000289699
0.000285881
0.000275423
0.000212551
0.000179857
0.000187149
0.000151353
0.000151604
0.000143743
0.000144139
0.000145196
0.000147137
0.00014694
0.000130772
0.000563122
0.000557342
0.000575353
0.000501915
0.00045703
0.000443588
0.000348802
0.000291247
0.000292168
0.000241334
0.000246363
0.000157754
0.000147621
0.000151231
0.000150799
0.000150874
0.000149693
0.000147878
0.000130583
0.000574028
0.000504261
0.000458315
0.000419467
0.000445497
0.000358456
0.000296339
0.000282139
0.000235226
0.00019046
0.000194216
0.000142404
0.000155295
0.000139617
0.000139241
0.000136453
0.00014814
0.000141009
0.00012672
0.000583763
0.000553948
0.00060405
0.000585866
0.0005227
0.000441766
0.000401206
0.000318915
0.000323554
0.000247288
0.000207452
0.000175104
0.00015891
0.000140226
0.000136209
0.000143038
0.000136915
0.000130562
0.0001169
0.000656481
0.000507211
0.000495182
0.000497786
0.000434946
0.000421513
0.000356256
0.000305179
0.000285294
0.000207703
0.000197652
0.000157447
0.000160581
0.000145914
0.000126652
0.000129682
0.000136429
0.000132186
0.000115011
0.000656153
0.000612881
0.000564568
0.000596751
0.000631489
0.000503053
0.000489684
0.00035609
0.000301544
0.000251335
0.000228276
0.000191748
0.000166669
0.000144326
0.000133941
0.000127576
0.000135015
0.000121135
0.000105493
0.000635403
0.000513227
0.000500447
0.000521265
0.000512926
0.000437879
0.000406832
0.000348778
0.000293401
0.000235408
0.000214952
0.000173697
0.000159488
0.0001631
0.000135204
0.000124428
0.000128112
0.000119933
0.000106439
0.00068522
0.000439319
0.000510654
0.000574936
0.000598431
0.000554913
0.000558562
0.000419068
0.000387905
0.000271621
0.000289307
0.000214712
0.00016133
0.00017801
0.000150747
0.000127709
0.000125189
0.0001213
0.000104448
0.000730618
0.000476929
0.000396098
0.000425096
0.00048486
0.00044117
0.000437314
0.000389453
0.000368553
0.000282081
0.000235001
0.000199186
0.000154885
0.000166561
0.000151202
0.000102699
0.000113644
0.000118082
0.000103399
0.000665625
0.00036278
0.000402644
0.000453263
0.000598736
0.000419472
0.000466111
0.00054155
0.000435867
0.000347065
0.000266821
0.00022412
0.000169812
0.000151827
0.000181911
0.000131293
0.000114864
0.000134056
0.000111373
0.000647046
0.000408584
0.000309281
0.000350926
0.000393843
0.000398929
0.000411311
0.000406991
0.000376005
0.000328699
0.000250085
0.000223086
0.000164762
0.000151488
0.000168562
0.000108152
9.30867e-05
0.00010931
0.000106785
0.000362793
0.000356425
0.000306764
0.00035154
0.000392772
0.000211386
0.000239553
0.000232561
0.000228805
0.000221824
0.000202502
0.000210057
0.000221453
0.000246541
0.00023027
0.000192291
0.00016574
0.000203947
0.000189027
0.000268298
0.000724858
0.000435253
0.000431111
0.000308273
0.000175039
0.00019129
0.000177376
0.000204043
0.00023354
0.000238667
0.000210703
0.000242286
0.000257304
0.000213548
0.000185425
0.000181059
0.00018066
0.000182946
0.000557964
0.000782615
0.000455184
0.000319492
0.000259665
0.000138275
0.000157442
0.000144826
0.000166199
0.000193622
0.000181214
0.000206501
0.000223417
0.000221362
0.0002044
0.000184033
0.000175432
0.000224462
0.000197134
0.000580672
0.000474648
0.000368422
0.000292285
0.000148053
0.000101853
0.000104576
0.000131531
0.000144213
0.000203612
0.000194683
0.000207553
0.000218339
0.00023899
0.000209982
0.00018046
0.000237744
0.000233991
0.000214388
0.00059899
0.000457517
0.000343557
0.000252156
0.000111717
5.65044e-05
6.96951e-05
0.000134059
0.000159674
0.000187401
0.000188069
0.000198882
0.000228341
0.000231854
0.000214764
0.000209887
0.000242473
0.000223623
0.000223022
0.000630682
0.000462306
0.00026146
0.000152872
9.23894e-05
5.51014e-05
7.6801e-05
0.000114627
0.000162513
0.000200382
0.000233203
0.000224332
0.000228149
0.000245777
0.000232513
0.000249087
0.000239101
0.000249614
0.000239194
0.000601381
0.000484141
0.000294443
0.00018368
0.000109214
0.000101188
0.000100545
0.000135933
0.000190569
0.000228296
0.000215547
0.000225205
0.000235388
0.000282717
0.00028776
0.00027799
0.000276134
0.000255557
0.000242312
0.00072185
0.000480182
0.000258242
0.000131684
9.6443e-05
0.000108119
0.000132825
0.000155828
0.000215199
0.000264393
0.000254845
0.000245195
0.000286417
0.000298197
0.000297216
0.000304904
0.000275122
0.000250848
0.000233139
0.000639649
0.00041741
0.000219727
0.000116783
0.000116694
0.00014453
0.000152727
0.000199334
0.000267968
0.000307898
0.000279147
0.000304481
0.000336841
0.000347983
0.000333734
0.000323146
0.000290617
0.000244926
0.000229682
0.000680436
0.000436991
0.00020144
0.000168443
0.000161154
0.000179007
0.000178445
0.000267152
0.000294569
0.000311588
0.000316677
0.000345569
0.000346414
0.000332759
0.000319694
0.000323821
0.000286926
0.000240247
0.000232134
0.000608882
0.000397759
0.000209468
0.000135185
0.00019273
0.000231989
0.000261644
0.000295514
0.000308534
0.000338211
0.000334737
0.00034148
0.000323962
0.000313844
0.000296224
0.000274906
0.000247313
0.000231747
0.000227159
0.000632003
0.000399992
0.000241078
0.00021525
0.000263033
0.00028774
0.000266523
0.000336649
0.000314009
0.000312857
0.000317314
0.000304992
0.000300449
0.000278894
0.000253243
0.000259156
0.000228472
0.000218145
0.000220858
0.000579821
0.00039412
0.00032672
0.000376719
0.000369441
0.000420235
0.000436796
0.000480225
0.000319113
0.000298081
0.000286405
0.00027534
0.000239237
0.000264564
0.000204616
0.000209125
0.000211436
0.000196569
0.000200798
0.000632967
0.000415298
0.000381566
0.000590116
0.000448332
0.000363232
0.000476436
0.000344421
0.000301205
0.000278237
0.000262301
0.000237443
0.000197658
0.000183794
0.000180117
0.000181429
0.000186022
0.000181437
0.000182835
0.000739675
0.000425427
0.000461875
0.000649808
0.000478219
0.000443839
0.000438495
0.00032379
0.0002756
0.000274841
0.000251978
0.00021609
0.00018091
0.00016111
0.000160112
0.000158131
0.000169128
0.000169043
0.000169848
0.000644528
0.00045092
0.000372148
0.000473806
0.000498869
0.000439862
0.000387182
0.000370863
0.000320548
0.000302315
0.000264965
0.000235749
0.000190999
0.000163684
0.00015875
0.00014834
0.000152884
0.000156326
0.000160469
0.0005807
0.000442557
0.000370933
0.000342764
0.000500732
0.000472964
0.000402278
0.000403653
0.000344378
0.000340912
0.000284417
0.000266434
0.00022914
0.000175093
0.000151846
0.000144669
0.000139244
0.000147925
0.000147964
0.000573945