/*--------------------------------*- C++ -*----------------------------------*\
| =========                 |                                                 |
| \\      /  F ield         | foam-extend: Open Source CFD                    |
|  \\    /   O peration     | Version:     3.1                                |
|   \\  /    A nd           | Web:         http://www.extend-project.de       |
|    \\/     M anipulation  |                                                 |
\*---------------------------------------------------------------------------*/
FoamFile
{
    version     2.0;
    format      ascii;
    class       volScalarField;
    location    "345600";
    object      epsilonEq;
}
// * * * * * * * * * * * * * * * * * * * * * * * * * * * * * * * * * * * * * //

dimensions      [0 0 0 0 0 0 0];

internalField   nonuniform List<scalar> 
23248
(
0.172731
0.172643
0.172392
0.171765
0.170965
0.168869
0.168487
0.187571
0.271279
0.163849
0.163716
0.163286
0.162914
0.160714
0.156381
0.148804
0.149804
0.192419
0.170833
0.170786
0.170557
0.169891
0.168811
0.166977
0.167063
0.187622
0.27909
0.151563
0.151515
0.151067
0.150267
0.148028
0.143299
0.134996
0.135927
0.185891
0.147022
0.146915
0.146612
0.145807
0.144902
0.14266
0.142386
0.164997
0.256911
0.150561
0.150436
0.149887
0.149097
0.146814
0.142007
0.133612
0.134191
0.187805
0.172089
0.172
0.171722
0.170969
0.169983
0.16777
0.166608
0.1844
0.268588
0.154334
0.154386
0.153899
0.152856
0.150423
0.145273
0.135767
0.13151
0.177474
0.212706
0.212569
0.212291
0.211657
0.211406
0.209401
0.208533
0.225389
0.296257
0.16417
0.164093
0.163663
0.162654
0.160423
0.15572
0.147292
0.14342
0.180153
0.130972
0.130754
0.130427
0.129613
0.128216
0.12637
0.127228
0.154061
0.275891
0.150033
0.149942
0.149534
0.148526
0.146241
0.141644
0.134332
0.136302
0.183073
0.191411
0.19132
0.191097
0.190633
0.190332
0.189836
0.192234
0.222878
0.329492
0.167701
0.167673
0.167256
0.166274
0.164122
0.15988
0.15312
0.154813
0.19662
0.203952
0.2037
0.203478
0.20285
0.201535
0.202243
0.2023
0.228863
0.323775
0.180049
0.17997
0.179571
0.178607
0.176481
0.172185
0.165277
0.164811
0.198565
0.231913
0.231743
0.23263
0.231905
0.230992
0.230582
0.233655
0.265412
0.369232
0.178757
0.178778
0.178421
0.177399
0.175051
0.170067
0.162358
0.161266
0.194817
0.273607
0.273373
0.275673
0.275214
0.274543
0.273253
0.267198
0.310252
0.428832
0.19736
0.197248
0.196805
0.195856
0.193769
0.18917
0.182719
0.18549
0.221366
0.247424
0.247402
0.2477
0.247267
0.246567
0.248453
0.223992
0.30163
0.422262
0.213106
0.212956
0.212467
0.2114
0.209205
0.205463
0.19351
0.197334
0.230443
0.304982
0.304874
0.304701
0.30431
0.303802
0.30358
0.289153
0.352355
0.521798
0.234611
0.234445
0.234018
0.233052
0.231059
0.227292
0.225284
0.229793
0.255973
0.362697
0.362576
0.362372
0.361886
0.361029
0.359458
0.368738
0.421927
0.592248
0.265033
0.265017
0.264646
0.263786
0.262006
0.258832
0.255785
0.264896
0.289276
0.417549
0.417592
0.417419
0.417016
0.416517
0.417589
0.430614
0.500052
0.593683
0.292372
0.292168
0.291811
0.291053
0.289594
0.287464
0.287541
0.301759
0.314444
0.378741
0.378205
0.377992
0.37751
0.376981
0.378442
0.394302
0.478944
0.717208
0.276896
0.276735
0.276164
0.274883
0.272317
0.268008
0.26463
0.278163
0.320969
0.40807
0.409378
0.409035
0.408464
0.4078
0.409293
0.427106
0.52479
0.722901
0.258514
0.258211
0.25726
0.255102
0.250625
0.24225
0.231289
0.238821
0.293961
0.36671
0.36658
0.366206
0.365509
0.364635
0.365836
0.382179
0.472358
0.697936
0.260336
0.259901
0.25881
0.256368
0.251369
0.242253
0.23105
0.242034
0.318064
0.346896
0.346747
0.346369
0.345682
0.34502
0.347431
0.3692
0.475544
0.735543
0.258659
0.258295
0.257168
0.254655
0.249567
0.240525
0.230733
0.244549
0.297443
0.322088
0.321915
0.321454
0.320554
0.319288
0.319536
0.332137
0.402171
0.603722
0.274414
0.274117
0.273185
0.27114
0.267117
0.260323
0.254015
0.268655
0.327334
0.174668
0.174565
0.174222
0.173487
0.173001
0.170337
0.168018
0.182099
0.258566
0.144013
0.143808
0.142894
0.141752
0.134652
0.139519
0.139432
0.127653
0.205944
0.151848
0.151366
0.143053
0.142771
0.134036
0.142219
0.13689
0.153445
0.249458
0.15683
0.156273
0.164869
0.16476
0.163283
0.150834
0.152207
0.181087
0.260128
0.173411
0.173554
0.172362
0.169595
0.168116
0.168038
0.168894
0.189916
0.251643
0.128064
0.127806
0.127205
0.126611
0.125283
0.123183
0.127163
0.162657
0.263777
0.112112
0.112014
0.112406
0.11175
0.109859
0.108592
0.115952
0.160185
0.263485
0.19531
0.195172
0.194931
0.194826
0.19396
0.192822
0.196877
0.230337
0.333472
0.108867
0.108741
0.108391
0.107747
0.10561
0.105352
0.115335
0.16501
0.317527
0.227652
0.227593
0.2274
0.227882
0.221429
0.224028
0.231027
0.269951
0.34643
0.228752
0.228661
0.228436
0.228064
0.226938
0.227422
0.234911
0.279676
0.416389
0.215312
0.215178
0.214915
0.214347
0.213341
0.213055
0.221003
0.269473
0.420688
0.214086
0.213821
0.213527
0.212901
0.211914
0.212045
0.219485
0.266619
0.399845
0.242834
0.242933
0.24262
0.241948
0.24077
0.239904
0.245463
0.280249
0.393361
0.256205
0.256095
0.255747
0.25503
0.253845
0.252919
0.257526
0.28964
0.396061
0.247835
0.247683
0.247288
0.246487
0.245191
0.244245
0.249423
0.282916
0.36193
0.200278
0.200101
0.199625
0.198695
0.197288
0.196517
0.203636
0.242806
0.342802
0.231567
0.231384
0.230947
0.230079
0.228773
0.228424
0.23611
0.275927
0.361359
0.231594
0.23144
0.231034
0.230248
0.229152
0.22916
0.237668
0.278983
0.364877
0.144279
0.144225
0.143783
0.142822
0.140716
0.135859
0.127486
0.128894
0.175692
0.143746
0.143707
0.143422
0.142689
0.14162
0.137041
0.133368
0.145983
0.188594
0.151235
0.150859
0.151052
0.150128
0.148843
0.143834
0.137125
0.142982
0.187588
0.140438
0.140477
0.140126
0.139171
0.136548
0.131291
0.124968
0.137477
0.196964
0.137586
0.137306
0.136532
0.135409
0.132905
0.127702
0.120167
0.1318
0.19367
0.138159
0.138133
0.137608
0.136674
0.134494
0.13013
0.125605
0.142609
0.199475
0.132206
0.132157
0.131727
0.130707
0.128515
0.124372
0.121435
0.144777
0.203534
0.120739
0.120696
0.120182
0.118864
0.116124
0.110866
0.105445
0.125587
0.192169
0.151902
0.151785
0.151397
0.150373
0.148353
0.144905
0.142805
0.163182
0.235482
0.153386
0.153364
0.15296
0.152077
0.150094
0.146739
0.145042
0.1668
0.225788
0.180903
0.180716
0.180282
0.179323
0.177242
0.17351
0.170673
0.18791
0.240228
0.185148
0.184928
0.184362
0.18304
0.18017
0.174583
0.167542
0.176495
0.224205
0.182886
0.182578
0.181831
0.180087
0.176325
0.16877
0.157456
0.160639
0.217206
0.193547
0.193215
0.1924
0.190536
0.186584
0.178823
0.166565
0.163596
0.20971
0.204394
0.204092
0.203299
0.201519
0.197835
0.190802
0.180466
0.179067
0.209936
0.197906
0.197515
0.19665
0.194748
0.190901
0.183978
0.175036
0.177627
0.20151
0.190759
0.190466
0.189565
0.187598
0.183699
0.176924
0.169301
0.175915
0.204865
0.197142
0.196774
0.195838
0.193813
0.189842
0.182929
0.174681
0.179368
0.205437
0.199324
0.199027
0.198227
0.196513
0.193253
0.187998
0.183479
0.194084
0.221187
0.221512
0.226121
0.220626
0.206493
0.222651
0.223024
0.218669
0.22365
0.21435
0.223303
0.211926
0.214726
0.209526
0.234197
0.226263
0.199215
0.197925
0.203203
0.213889
0.217381
0.178848
0.198846
0.197769
0.189791
0.183202
0.176266
0.173771
0.177773
0.174884
0.178782
0.179504
0.203692
0.21017
0.196438
0.188759
0.179881
0.195712
0.183547
0.208309
0.221273
0.247338
0.206244
0.19484
0.210164
0.205883
0.201035
0.193934
0.195065
0.21311
0.210457
0.208991
0.219406
0.224026
0.22808
0.197286
0.190523
0.182242
0.203472
0.183375
0.17842
0.188744
0.181357
0.179255
0.171771
0.170888
0.173744
0.166228
0.197754
0.180202
0.190223
0.221406
0.202157
0.19068
0.189618
0.174091
0.189323
0.217586
0.213539
0.211152
0.20633
0.204103
0.196143
0.198225
0.188073
0.181235
0.209171
0.193144
0.238985
0.187831
0.203827
0.214031
0.218506
0.228601
0.174703
0.186601
0.184504
0.181357
0.173834
0.168898
0.183946
0.165851
0.172483
0.173837
0.184636
0.17108
0.167798
0.208934
0.182459
0.188128
0.207618
0.196349
0.185976
0.185661
0.180404
0.22774
0.229496
0.206784
0.194977
0.20428
0.213488
0.199142
0.207808
0.210952
0.193737
0.221852
0.209581
0.189185
0.174086
0.177654
0.232817
0.2259
0.219835
0.189492
0.174171
0.17053
0.185759
0.177592
0.173845
0.160397
0.205681
0.207865
0.170358
0.180073
0.177838
0.16633
0.195936
0.136368
0.187019
0.21956
0.225949
0.187029
0.191588
0.214408
0.214818
0.22987
0.190762
0.174462
0.21591
0.209732
0.215981
0.27104
0.211738
0.19849
0.195906
0.201514
0.183881
0.173941
0.176099
0.225695
0.210723
0.215272
0.171561
0.170506
0.185849
0.213087
0.195436
0.191344
0.19195
0.211015
0.184538
0.175771
0.175455
0.15347
0.176917
0.208012
0.146721
0.1821
0.223802
0.191394
0.186994
0.208387
0.204479
0.207954
0.203722
0.200016
0.201309
0.238099
0.221703
0.219871
0.238063
0.221816
0.189608
0.194561
0.187579
0.187814
0.169157
0.174818
0.209783
0.228781
0.186559
0.196917
0.189712
0.187815
0.233372
0.21055
0.193858
0.181413
0.187349
0.19608
0.188595
0.178201
0.152006
0.184499
0.186977
0.143823
0.172148
0.221529
0.221103
0.209654
0.210997
0.221455
0.223367
0.232909
0.206128
0.211791
0.232516
0.23405
0.208258
0.215837
0.223467
0.169532
0.178112
0.182053
0.189051
0.159063
0.194986
0.227483
0.194863
0.198029
0.193906
0.190935
0.21378
0.199262
0.200003
0.181328
0.17551
0.186057
0.194353
0.189457
0.177361
0.140243
0.184198
0.167979
0.127717
0.167397
0.22675
0.228596
0.236427
0.244811
0.193115
0.23415
0.230281
0.206728
0.209322
0.214787
0.205283
0.192593
0.201924
0.211332
0.135764
0.175108
0.186668
0.203975
0.165739
0.203922
0.199923
0.196328
0.217947
0.17182
0.200389
0.194797
0.184754
0.204874
0.167965
0.173052
0.180404
0.196968
0.183808
0.175629
0.132716
0.170507
0.15866
0.143715
0.153687
0.257205
0.249682
0.222864
0.224905
0.195144
0.229738
0.210859
0.207879
0.190833
0.199545
0.203607
0.18574
0.19957
0.199428
0.152157
0.19669
0.208799
0.220485
0.199713
0.198649
0.205637
0.191544
0.187113
0.177975
0.19444
0.199196
0.183974
0.212607
0.158644
0.185422
0.200209
0.190258
0.164088
0.163116
0.195208
0.161859
0.163615
0.173377
0.258736
0.231382
0.228622
0.21603
0.204186
0.182314
0.211696
0.209529
0.200097
0.176722
0.189207
0.19335
0.188953
0.218399
0.17945
0.195686
0.202162
0.204804
0.211932
0.208399
0.196005
0.223154
0.195645
0.17692
0.173383
0.186382
0.211477
0.177025
0.207854
0.129241
0.187085
0.17884
0.181645
0.170686
0.177323
0.175681
0.19045
0.190066
0.235041
0.223256
0.2305
0.198915
0.211553
0.19832
0.204427
0.2063
0.185761
0.142657
0.170535
0.198012
0.200268
0.21328
0.203374
0.195497
0.192654
0.201562
0.206963
0.204074
0.21407
0.194128
0.179959
0.194623
0.198399
0.176101
0.175431
0.224698
0.157713
0.195702
0.144099
0.185319
0.206868
0.181985
0.186301
0.188306
0.194099
0.1987
0.249328
0.247769
0.248992
0.217769
0.198359
0.20166
0.183372
0.144916
0.209505
0.208242
0.141635
0.186819
0.218968
0.187453
0.208895
0.188734
0.197079
0.202775
0.209403
0.212359
0.205493
0.222171
0.199284
0.206483
0.184821
0.162401
0.164829
0.148019
0.222498
0.154852
0.190875
0.145307
0.185889
0.210776
0.180308
0.197582
0.18805
0.192168
0.263711
0.258127
0.244435
0.247085
0.216517
0.186053
0.186653
0.17233
0.177227
0.213421
0.191645
0.218665
0.224308
0.204354
0.202233
0.202305
0.198674
0.20927
0.209604
0.207406
0.202575
0.211537
0.221662
0.192389
0.171313
0.220663
0.161002
0.18849
0.16125
0.203706
0.16509
0.207084
0.144801
0.192108
0.186592
0.187077
0.187333
0.18778
0.265653
0.259239
0.258941
0.241861
0.237583
0.209346
0.180573
0.181314
0.1768
0.147105
0.230403
0.224318
0.204756
0.235315
0.210924
0.229288
0.205754
0.211205
0.218341
0.210084
0.207368
0.202064
0.203787
0.183364
0.245788
0.161579
0.207362
0.154505
0.15292
0.153063
0.193727
0.170279
0.214827
0.160405
0.182894
0.182566
0.191304
0.195489
0.262605
0.254715
0.265007
0.247549
0.247422
0.229623
0.200161
0.182416
0.191284
0.200313
0.17399
0.238071
0.243726
0.208842
0.224002
0.235568
0.230096
0.220357
0.212353
0.212435
0.210989
0.205588
0.201822
0.276309
0.17746
0.229312
0.161182
0.188784
0.156348
0.138856
0.158914
0.185762
0.191033
0.199597
0.177421
0.187113
0.193855
0.19869
0.261121
0.254719
0.258605
0.243072
0.215735
0.238377
0.216575
0.201856
0.201428
0.211395
0.225081
0.227382
0.247757
0.229365
0.222959
0.209268
0.227206
0.236616
0.231683
0.227928
0.222907
0.215277
0.160666
0.190207
0.262058
0.178419
0.213387
0.169313
0.166271
0.166557
0.174127
0.181969
0.184342
0.201004
0.190431
0.186523
0.194815
0.202784
0.265375
0.28263
0.222922
0.294648
0.236779
0.214714
0.243368
0.218654
0.218295
0.230998
0.233791
0.244678
0.248231
0.273949
0.248374
0.218327
0.209154
0.241924
0.232796
0.238814
0.229101
0.207414
0.243541
0.154551
0.184843
0.249162
0.184458
0.194932
0.176982
0.181056
0.186292
0.198883
0.196679
0.196549
0.205372
0.196285
0.192432
0.202916
0.270944
0.261431
0.278319
0.226441
0.247894
0.234647
0.248293
0.230566
0.233389
0.239989
0.245157
0.252251
0.268723
0.250096
0.24358
0.247163
0.223413
0.226045
0.25868
0.234309
0.254126
0.221527
0.202822
0.213715
0.140116
0.212174
0.191813
0.189853
0.18476
0.192655
0.199516
0.206854
0.209871
0.204555
0.207407
0.21144
0.19946
0.198704
0.278326
0.219893
0.263013
0.27885
0.231816
0.25077
0.230741
0.248732
0.242247
0.246764
0.26004
0.260315
0.276543
0.245145
0.26278
0.237638
0.244192
0.228871
0.220156
0.230385
0.203906
0.238978
0.220832
0.146607
0.223218
0.122972
0.203883
0.200376
0.194411
0.204401
0.209327
0.215123
0.215511
0.212082
0.205881
0.207377
0.210124
0.208258
0.209012
0.248984
0.241277
0.215331
0.2159
0.259091
0.255085
0.25499
0.279073
0.266867
0.281236
0.240306
0.218946
0.21965
0.227954
0.218831
0.18989
0.200715
0.20004
0.24339
0.185519
0.208391
0.206926
0.204369
0.22427
0.203753
0.202728
0.221625
0.196135
0.189001
0.188112
0.179566
0.179737
0.188236
0.184466
0.181844
0.17537
0.178793
0.202903
0.260066
0.252705
0.250275
0.24637
0.209071
0.202179
0.246188
0.239408
0.253994
0.243349
0.225828
0.229815
0.229063
0.24705
0.242247
0.217912
0.224702
0.227815
0.198284
0.20911
0.210588
0.213829
0.221147
0.208498
0.215167
0.218284
0.222885
0.211652
0.205641
0.186349
0.185171
0.183227
0.173622
0.169985
0.173687
0.179922
0.188374
0.215904
0.27124
0.272224
0.25811
0.258729
0.231124
0.219197
0.250617
0.235243
0.231312
0.22565
0.231149
0.220781
0.232399
0.246326
0.230757
0.223455
0.239917
0.230484
0.2592
0.200435
0.218349
0.218263
0.220223
0.238074
0.222293
0.227907
0.224365
0.217132
0.197364
0.198052
0.19359
0.199577
0.1755
0.193003
0.178212
0.178128
0.180568
0.177755
0.23315
0.241964
0.255957
0.281249
0.265037
0.253511
0.239925
0.246242
0.239558
0.240389
0.233583
0.237318
0.232735
0.240671
0.219614
0.223122
0.22542
0.224997
0.195297
0.19893
0.215589
0.221635
0.243139
0.239048
0.23488
0.232789
0.214353
0.217138
0.213368
0.207231
0.203584
0.222172
0.184682
0.19068
0.18178
0.162903
0.18181
0.222902
0.287494
0.261949
0.273267
0.289554
0.26509
0.246782
0.236107
0.245027
0.250032
0.248918
0.239305
0.24977
0.257396
0.243476
0.229946
0.23553
0.233516
0.220721
0.23217
0.210165
0.223641
0.237867
0.250069
0.238093
0.226413
0.231907
0.219792
0.226167
0.209644
0.202472
0.215559
0.191359
0.1922
0.192337
0.197339
0.180541
0.168214
0.197786
0.309339
0.308693
0.303515
0.312898
0.270887
0.27773
0.26336
0.250069
0.259093
0.265756
0.248826
0.243921
0.24051
0.246316
0.232337
0.247575
0.239467
0.22691
0.199159
0.238542
0.231575
0.248359
0.247349
0.244316
0.241241
0.236676
0.222761
0.225169
0.23813
0.22249
0.219428
0.190779
0.203719
0.222894
0.200095
0.171949
0.18049
0.2126
0.249811
0.305786
0.301996
0.313764
0.302574
0.294267
0.281213
0.267077
0.258815
0.266234
0.253339
0.25834
0.252913
0.266194
0.267603
0.249059
0.240859
0.228272
0.218747
0.206316
0.237668
0.241125
0.239772
0.250032
0.248335
0.228649
0.229153
0.219267
0.250151
0.220096
0.236212
0.207022
0.221282
0.218627
0.176669
0.178842
0.189131
0.234538
0.32581
0.3296
0.322804
0.35909
0.300055
0.31544
0.293192
0.276978
0.26702
0.273104
0.256345
0.262926
0.257683
0.267024
0.267951
0.248059
0.228482
0.229938
0.225819
0.240598
0.247483
0.235894
0.245016
0.260912
0.273698
0.268694
0.237322
0.242894
0.234977
0.231378
0.22312
0.216883
0.229525
0.201892
0.178586
0.188534
0.19108
0.27316
0.318626
0.330247
0.356762
0.365234
0.330107
0.317847
0.310123
0.290959
0.273635
0.27949
0.261242
0.261532
0.258844
0.267316
0.263598
0.242706
0.225139
0.244403
0.210832
0.219941
0.23973
0.259851
0.247535
0.247129
0.255557
0.261595
0.251808
0.249431
0.246371
0.226556
0.229153
0.218935
0.222936
0.204629
0.203967
0.202827
0.196804
0.280537
0.402924
0.377659
0.347137
0.384494
0.37535
0.323501
0.324043
0.300145
0.285722
0.28838
0.28054
0.260491
0.274874
0.265234
0.265228
0.231096
0.236174
0.247487
0.248963
0.242336
0.26659
0.282796
0.274043
0.273279
0.280638
0.27782
0.261647
0.270222
0.264464
0.225416
0.239514
0.242659
0.234629
0.208826
0.222755
0.213601
0.201529
0.244664
0.391005
0.329606
0.372113
0.404336
0.378596
0.365401
0.350904
0.329108
0.303256
0.307465
0.297077
0.283612
0.274974
0.261973
0.255577
0.245535
0.256955
0.255887
0.246163
0.283362
0.267286
0.289399
0.268913
0.272473
0.301407
0.289908
0.27855
0.276017
0.261851
0.246235
0.242173
0.246807
0.225084
0.220216
0.227953
0.220267
0.223685
0.323755
0.446721
0.470253
0.420537
0.430253
0.399786
0.396362
0.341851
0.344652
0.313931
0.312569
0.309295
0.307304
0.283574
0.271668
0.264389
0.268869
0.27282
0.261517
0.301102
0.290571
0.317955
0.324624
0.303746
0.316029
0.307264
0.288077
0.300139
0.274733
0.279992
0.271222
0.247145
0.244811
0.235897
0.227505
0.229557
0.224071
0.198182
0.239577
0.421997
0.546169
0.467558
0.429458
0.459159
0.418652
0.414846
0.383456
0.358529
0.347881
0.325064
0.309201
0.290935
0.274792
0.285178
0.267729
0.274578
0.270231
0.283894
0.266928
0.34095
0.337421
0.330225
0.297436
0.302289
0.342742
0.307388
0.297995
0.293023
0.282062
0.255888
0.242325
0.237367
0.235479
0.234486
0.230049
0.239462
0.394277
0.571538
0.615962
0.567236
0.57015
0.559701
0.456653
0.441717
0.410989
0.404451
0.371062
0.33619
0.308488
0.294113
0.286161
0.279373
0.272454
0.275992
0.272309
0.364949
0.333267
0.394951
0.349904
0.341196
0.33121
0.351125
0.335704
0.319237
0.317332
0.34145
0.281085
0.293619
0.248564
0.240644
0.242134
0.231823
0.229156
0.22286
0.301796
0.615633
0.653241
0.563655
0.525735
0.52707
0.455606
0.469302
0.419456
0.409533
0.404199
0.340858
0.310572
0.298249
0.298081
0.287572
0.284544
0.291495
0.273429
0.294654
0.31686
0.348215
0.360989
0.378725
0.352625
0.350605
0.346775
0.342751
0.329135
0.351832
0.291566
0.290666
0.277075
0.235133
0.245923
0.232412
0.232039
0.222775
0.188848
0.528739
0.729652
0.672217
0.61409
0.503424
0.482867
0.468121
0.443399
0.425089
0.405595
0.365137
0.329344
0.296109
0.296734
0.286751
0.289547
0.292116
0.276509
0.246952
0.21951
0.36422
0.425101
0.367463
0.38876
0.405679
0.359452
0.381069
0.368625
0.343425
0.325475
0.289577
0.287111
0.266973
0.247133
0.247012
0.234112
0.237964
0.254641
0.661607
0.633421
0.674889
0.611054
0.562782
0.546114
0.522239
0.477644
0.444436
0.412756
0.380963
0.340996
0.313149
0.290876
0.292428
0.300055
0.287938
0.277596
0.32816
0.269488
0.405515
0.420724
0.437531
0.400947
0.384789
0.403311
0.398673
0.35835
0.357479
0.344039
0.317327
0.284637
0.281236
0.255533
0.256825
0.253126
0.24239
0.256121
0.474427
0.585639
0.605758
0.547504
0.548966
0.572554
0.531999
0.507209
0.463541
0.442412
0.403926
0.346939
0.33468
0.302926
0.305008
0.297141
0.300099
0.284196
0.263429
0.310997
0.267819
0.394853
0.458499
0.407825
0.425714
0.421014
0.409581
0.372488
0.372155
0.343015
0.334753
0.287632
0.279573
0.253408
0.258715
0.270385
0.251122
0.220705
0.398937
0.689744
0.619044
0.60384
0.469514
0.486553
0.566943
0.52627
0.487005
0.439172
0.413143
0.369374
0.337571
0.316888
0.308801
0.303257
0.299688
0.296725
0.346484
0.328377
0.392493
0.39354
0.403879
0.385412
0.395853
0.439944
0.415339
0.418089
0.356606
0.37636
0.321342
0.312819
0.273985
0.262511
0.248497
0.248782
0.25392
0.190728
0.226003
0.236425
0.328527
0.345692
0.264032
0.248176
0.256522
0.253857
0.241714
0.231218
0.229455
0.222149
0.22374
0.228347
0.248475
0.211804
0.201387
0.220216
0.248451
0.456895
0.436106
0.334398
0.293219
0.265584
0.274404
0.222724
0.242762
0.245081
0.253684
0.238983
0.259889
0.232038
0.203505
0.218205
0.229545
0.206805
0.23504
0.293745
0.455871
0.440947
0.299605
0.274245
0.256674
0.230147
0.184602
0.211762
0.19502
0.201606
0.213957
0.198333
0.208987
0.224084
0.223172
0.209314
0.212589
0.218116
0.247862
0.27277
0.31035
0.366918
0.244816
0.267065
0.236292
0.171072
0.190179
0.200286
0.200983
0.222427
0.228613
0.22123
0.205143
0.213065
0.203944
0.208363
0.225423
0.257065
0.227984
0.293116
0.312768
0.229585
0.203024
0.217272
0.216868
0.188503
0.194738
0.196142
0.186777
0.1997
0.201465
0.205795
0.200027
0.192384
0.212303
0.220138
0.237014
0.251236
0.272847
0.254577
0.245458
0.237286
0.189867
0.173956
0.137988
0.197067
0.225457
0.196279
0.209195
0.203973
0.198093
0.200894
0.205062
0.19934
0.219973
0.205447
0.296682
0.30418
0.295167
0.230536
0.199937
0.185861
0.153443
0.198213
0.181943
0.190323
0.1923
0.194793
0.217894
0.199925
0.203092
0.199458
0.206974
0.227095
0.334242
0.292466
0.335219
0.250114
0.243523
0.212707
0.172966
0.148171
0.15416
0.186753
0.185348
0.186605
0.198795
0.207302
0.206968
0.19769
0.202058
0.211357
0.24156
0.161982
0.250598
0.343876
0.233576
0.231987
0.177486
0.215022
0.172845
0.145286
0.219041
0.182984
0.190955
0.216079
0.227049
0.228656
0.221104
0.232513
0.21643
0.219852
0.247024
0.333289
0.3632
0.258253
0.263122
0.210153
0.187815
0.219993
0.104549
0.185711
0.189862
0.20587
0.229736
0.238824
0.23081
0.244729
0.263977
0.224228
0.234355
0.186579
0.336775
0.386904
0.31882
0.276658
0.228606
0.208626
0.21219
0.195446
0.21574
0.213971
0.236763
0.211988
0.241564
0.249241
0.245457
0.257849
0.245256
0.211503
0.291527
0.327167
0.454912
0.418329
0.193672
0.181265
0.240642
0.221055
0.253457
0.231542
0.235533
0.256038
0.237561
0.252033
0.268384
0.266292
0.226971
0.227462
0.237191
0.171376
0.372697
0.501201
0.441203
0.267894
0.28741
0.308696
0.271717
0.284832
0.262189
0.262073
0.267184
0.253414
0.275766
0.249454
0.253871
0.243798
0.212406
0.225261
0.267483
0.360329
0.449487
0.545101
0.538637
0.337724
0.359668
0.33543
0.297408
0.288422
0.282515
0.263509
0.263841
0.234781
0.232466
0.232944
0.23103
0.215823
0.232321
0.267026
0.282683
0.46071
0.61113
0.578373
0.444021
0.394346
0.36344
0.321657
0.309322
0.281917
0.274866
0.248407
0.241067
0.22774
0.218761
0.229535
0.214622
0.196523
0.0893584
0.384557
0.434823
0.485558
0.562946
0.514932
0.423271
0.388549
0.351792
0.32599
0.280024
0.272653
0.252669
0.231078
0.238631
0.216195
0.226533
0.218048
0.197526
0.228878
0.290777
0.371916
0.478796
0.570818
0.477316
0.456185
0.449274
0.361196
0.336354
0.304153
0.278468
0.268551
0.246458
0.221281
0.219917
0.201163
0.221908
0.209572
0.15374
0.347936
0.425884
0.513281
0.520396
0.44604
0.432337
0.46334
0.407163
0.34801
0.329232
0.305223
0.277452
0.264217
0.231519
0.220075
0.212656
0.205174
0.218442
0.178523
0.277847
0.396547
0.379609
0.394299
0.421822
0.417239
0.464181
0.438849
0.384976
0.352808
0.323558
0.292315
0.273173
0.255695
0.224117
0.219956
0.200482
0.211232
0.234979
0.203526
0.2026
0.208472
0.200156
0.170875
0.194097
0.202528
0.196227
0.184173
0.18716
0.181895
0.1829
0.191339
0.190483
0.16794
0.162135
0.172075
0.173137
0.269269
0.196074
0.268788
0.221518
0.171148
0.17786
0.19335
0.176192
0.167524
0.181921
0.175999
0.175933
0.177707
0.201178
0.19926
0.173293
0.186866
0.166362
0.183209
0.231242
0.216138
0.215838
0.198532
0.16358
0.168234
0.128881
0.135462
0.165303
0.180377
0.181256
0.174655
0.187771
0.200616
0.182304
0.17875
0.19093
0.181826
0.193066
0.234637
0.187276
0.180161
0.207324
0.14329
0.179348
0.171808
0.131277
0.146933
0.174458
0.182433
0.16529
0.185484
0.197801
0.193221
0.177896
0.195696
0.187732
0.193776
0.25766
0.198225
0.181571
0.178053
0.144098
0.141638
0.145064
0.150924
0.157781
0.157389
0.17211
0.180595
0.173824
0.177915
0.194313
0.183165
0.192614
0.189396
0.190545
0.184961
0.211625
0.2038
0.165701
0.143686
0.196859
0.123369
0.119204
0.163434
0.152095
0.181632
0.175119
0.161815
0.179597
0.188469
0.186901
0.201954
0.193806
0.195603
0.237998
0.247352
0.182046
0.217712
0.162215
0.156816
0.152886
0.137184
0.167045
0.160067
0.171846
0.179237
0.177266
0.206059
0.205095
0.195832
0.203373
0.195927
0.187772
0.246897
0.202748
0.213701
0.200529
0.178972
0.178442
0.159941
0.144689
0.141545
0.177367
0.176274
0.185905
0.176753
0.225995
0.241589
0.201433
0.207732
0.200204
0.181681
0.261743
0.205818
0.260216
0.207764
0.185678
0.150241
0.20844
0.19731
0.165299
0.227457
0.201988
0.214057
0.205025
0.191084
0.223152
0.209468
0.200545
0.205193
0.179003
0.297676
0.205532
0.244254
0.235863
0.214123
0.210269
0.175231
0.23094
0.16368
0.217706
0.211432
0.207999
0.20015
0.220808
0.214183
0.221141
0.211176
0.182707
0.178626
0.275985
0.213896
0.273479
0.218013
0.236439
0.219033
0.238749
0.262393
0.244769
0.214041
0.215943
0.212021
0.204071
0.217637
0.213561
0.200051
0.209027
0.211151
0.186845
0.22528
0.230953
0.272043
0.305587
0.25946
0.252847
0.312542
0.295493
0.252331
0.232239
0.224414
0.241117
0.253937
0.20945
0.188343
0.20788
0.179363
0.205384
0.204313
0.214012
0.194075
0.233298
0.3323
0.274977
0.261456
0.309229
0.315138
0.268949
0.257381
0.23557
0.227149
0.197402
0.206446
0.200936
0.206609
0.192755
0.185865
0.212568
0.248743
0.200922
0.252004
0.33395
0.324576
0.308763
0.287797
0.325747
0.293804
0.257675
0.24763
0.204298
0.221446
0.191721
0.196914
0.203907
0.204821
0.170857
0.196637
0.268718
0.16177
0.221934
0.314329
0.365169
0.336954
0.320544
0.320411
0.28019
0.26388
0.246141
0.2401
0.213639
0.210338
0.210595
0.195562
0.21183
0.199633
0.184657
0.210766
0.171773
0.224028
0.299677
0.363753
0.354185
0.359802
0.326923
0.304526
0.281405
0.256298
0.247095
0.231345
0.214068
0.222056
0.195181
0.208807
0.217138
0.1921
0.195063
0.211315
0.245684
0.279658
0.334245
0.353306
0.357968
0.340559
0.332545
0.313111
0.287464
0.25605
0.24995
0.222329
0.217597
0.216339
0.203779
0.211327
0.212823
0.203527
0.1746
0.23399
0.284824
0.340338
0.315172
0.327703
0.368355
0.351768
0.328823
0.313782
0.286556
0.26018
0.243559
0.223176
0.220483
0.2009
0.202266
0.215563
0.213135
0.158312
0.210577
0.282209
0.306243
0.304913
0.324524
0.362737
0.381366
0.353618
0.339834
0.314901
0.27292
0.255627
0.252428
0.217943
0.214853
0.200593
0.211633
0.173694
0.331009
0.419109
0.446372
0.509022
0.441564
0.43146
0.469087
0.451474
0.392035
0.35965
0.328336
0.293012
0.27046
0.254731
0.188596
0.2045
0.187934
0.196628
0.245981
0.178699
0.209254
0.277016
0.301154
0.292523
0.31611
0.352818
0.381792
0.361244
0.352022
0.322104
0.273152
0.255354
0.255489
0.221823
0.230155
0.196718
0.207654
0.16354
0.35253
0.425542
0.467633
0.501165
0.433773
0.418103
0.480957
0.430712
0.373193
0.349088
0.328121
0.290488
0.263485
0.226446
0.218333
0.209842
0.196746
0.210211
0.191836
0.164482
0.241394
0.27445
0.300519
0.294764
0.321072
0.367045
0.373251
0.354333
0.329939
0.302859
0.270643
0.243225
0.21563
0.212153
0.191204
0.196721
0.209811
0.199397
0.373437
0.423859
0.524585
0.518227
0.432714
0.419607
0.48355
0.40847
0.366219
0.341558
0.307753
0.293842
0.263895
0.234449
0.226321
0.202469
0.220107
0.206441
0.1733
0.185865
0.242712
0.276564
0.29326
0.306279
0.335587
0.374544
0.365604
0.344205
0.324781
0.284155
0.261832
0.232127
0.221965
0.217657
0.198853
0.20764
0.205923
0.212484
0.364193
0.438719
0.534681
0.543943
0.629756
0.611211
0.439363
0.371017
0.35695
0.303648
0.308834
0.283015
0.26472
0.254628
0.227175
0.229221
0.22546
0.199172
0.196341
0.191066
0.217825
0.265966
0.289822
0.335398
0.364962
0.360072
0.324312
0.323094
0.296548
0.279615
0.247292
0.235892
0.232923
0.201725
0.203759
0.203443
0.191052
0.200866
0.384237
0.489675
0.6232
0.655174
0.616841
0.499123
0.401157
0.365623
0.312683
0.306197
0.285199
0.275808
0.255282
0.247001
0.236457
0.2491
0.225778
0.194242
0.184438
0.162557
0.228415
0.304035
0.324011
0.340435
0.342654
0.336269
0.299779
0.283149
0.276171
0.255579
0.247233
0.23967
0.221355
0.209998
0.215134
0.199428
0.193929
0.234397
0.43472
0.592358
0.651587
0.63922
0.55557
0.467349
0.351551
0.312649
0.299905
0.286339
0.288816
0.262344
0.252985
0.234418
0.258607
0.248555
0.21116
0.226578
0.179025
0.162159
0.223886
0.308933
0.379041
0.367249
0.321424
0.352767
0.315656
0.263133
0.249693
0.240039
0.240934
0.229795
0.220816
0.225824
0.216955
0.20074
0.194213
0.266877
0.413861
0.666708
0.672967
0.593565
0.475355
0.433586
0.334784
0.291866
0.287373
0.263546
0.281768
0.266332
0.259903
0.25819
0.279707
0.21939
0.217455
0.243547
0.188613
0.178211
0.306513
0.323741
0.357458
0.330385
0.315585
0.327539
0.288535
0.256151
0.245109
0.23932
0.233598
0.221395
0.21636
0.228663
0.222227
0.20964
0.212579
0.211136
0.4748
0.466426
0.52659
0.466295
0.352863
0.316421
0.332332
0.286798
0.279501
0.292681
0.252433
0.259842
0.249873
0.259534
0.251357
0.211905
0.255132
0.232555
0.172543
0.21943
0.299459
0.334056
0.331643
0.301855
0.300337
0.285102
0.252586
0.236758
0.230094
0.228165
0.215645
0.221704
0.236013
0.222182
0.205788
0.23544
0.209616
0.189664
0.259258
0.275734
0.314658
0.338158
0.325955
0.311616
0.301065
0.28247
0.251831
0.279233
0.24676
0.236543
0.248791
0.269373
0.240977
0.257101
0.24262
0.222206
0.27059
0.253726
0.250227
0.276048
0.293115
0.289216
0.287219
0.268332
0.246844
0.236135
0.228694
0.195304
0.232319
0.233194
0.213635
0.214187
0.215693
0.222562
0.197672
0.224461
0.292241
0.28827
0.260252
0.237693
0.294796
0.296579
0.248472
0.267605
0.250265
0.243089
0.248622
0.240738
0.245572
0.248491
0.241255
0.263995
0.273086
0.220672
0.270618
0.231616
0.299724
0.264573
0.299784
0.293039
0.258636
0.244482
0.241741
0.234062
0.225722
0.217309
0.247419
0.208718
0.221688
0.208642
0.217666
0.215185
0.197754
0.147717
0.238897
0.276225
0.222097
0.254873
0.265438
0.257323
0.221792
0.22997
0.220686
0.212034
0.255321
0.237841
0.239752
0.223254
0.254344
0.25837
0.24362
0.222154
0.261181
0.23014
0.28709
0.24419
0.239861
0.24415
0.226781
0.231313
0.253953
0.210643
0.216518
0.236519
0.215067
0.215275
0.214077
0.22222
0.222664
0.199533
0.197898
0.217437
0.260179
0.272815
0.218653
0.216996
0.213586
0.221048
0.222608
0.191213
0.210726
0.223274