/*--------------------------------*- C++ -*----------------------------------*\
| =========                 |                                                 |
| \\      /  F ield         | foam-extend: Open Source CFD                    |
|  \\    /   O peration     | Version:     3.1                                |
|   \\  /    A nd           | Web:         http://www.extend-project.de       |
|    \\/     M anipulation  |                                                 |
\*---------------------------------------------------------------------------*/
FoamFile
{
    version     2.0;
    format      ascii;
    class       volScalarField;
    location    "345600";
    object      epsilonSum;
}
// * * * * * * * * * * * * * * * * * * * * * * * * * * * * * * * * * * * * * //

dimensions      [0 0 0 0 0 0 0];

internalField   nonuniform List<scalar> 
23248
(
0.261339
0.261336
0.26134
0.261323
0.26149
0.26264
0.268789
0.298114
0.393736
0.267126
0.267096
0.266954
0.267339
0.266936
0.266556
0.267624
0.286641
0.361121
0.251347
0.251355
0.25138
0.251353
0.251321
0.252718
0.259379
0.289565
0.393679
0.25263
0.252622
0.252456
0.252526
0.251941
0.251153
0.251667
0.271492
0.354311
0.232735
0.232722
0.232683
0.232527
0.23254
0.233452
0.239548
0.271981
0.374929
0.252901
0.252859
0.252604
0.252709
0.25206
0.251128
0.251345
0.270235
0.355209
0.265009
0.265004
0.264994
0.264883
0.264867
0.265818
0.271047
0.296966
0.392761
0.267604
0.267633
0.267436
0.267231
0.266434
0.265119
0.264182
0.278181
0.355461
0.31187
0.311876
0.311895
0.311932
0.312571
0.313762
0.319216
0.34546
0.426223
0.277002
0.27698
0.276868
0.276616
0.27607
0.275238
0.275252
0.289266
0.357106
0.208022
0.207984
0.20794
0.207768
0.207399
0.208699
0.215686
0.249952
0.382562
0.247054
0.247036
0.246937
0.24669
0.246119
0.245476
0.246962
0.267754
0.34768
0.258022
0.258069
0.258146
0.258364
0.259529
0.261288
0.270291
0.310983
0.425955
0.270319
0.270311
0.270226
0.270046
0.269723
0.26952
0.271727
0.292349
0.367356
0.300151
0.300145
0.30024
0.300319
0.30059
0.303248
0.309747
0.341127
0.440883
0.28806
0.288049
0.287981
0.287836
0.287567
0.287392
0.289566
0.307998
0.374142
0.303426
0.30344
0.303521
0.303711
0.304405
0.307289
0.316993
0.358185
0.465845
0.290958
0.290963
0.290888
0.290693
0.290254
0.289639
0.291502
0.310492
0.37917
0.343077
0.34307
0.344263
0.344595
0.345461
0.347538
0.348249
0.393831
0.511898
0.310785
0.310768
0.310682
0.310594
0.310446
0.310232
0.313191
0.335802
0.40465
0.319025
0.319155
0.319629
0.319972
0.321051
0.326927
0.34782
0.392907
0.511422
0.325711
0.325701
0.325642
0.325604
0.325743
0.326996
0.325729
0.352379
0.418586
0.372888
0.372949
0.373139
0.37357
0.374785
0.377882
0.371598
0.434957
0.586528
0.350962
0.350969
0.350992
0.351078
0.351418
0.352779
0.360878
0.386664
0.449494
0.416523
0.416547
0.416717
0.417112
0.418151
0.420921
0.435751
0.490031
0.639707
0.376377
0.37643
0.37655
0.376853
0.377657
0.380138
0.388996
0.420272
0.483024
0.442823
0.443071
0.443338
0.443943
0.44558
0.450744
0.469532
0.537606
0.656742
0.394268
0.394368
0.394606
0.395199
0.396702
0.400907
0.413928
0.451923
0.510567
0.424371
0.424168
0.424408
0.425032
0.426803
0.43254
0.453748
0.531989
0.726073
0.402389
0.402414
0.402502
0.402763
0.403572
0.406449
0.417582
0.456335
0.533485
0.463764
0.464405
0.464617
0.465285
0.467153
0.47317
0.495634
0.580803
0.753256
0.420944
0.420839
0.420632
0.420208
0.419499
0.419112
0.424146
0.45778
0.540078
0.459603
0.459614
0.459816
0.460392
0.462062
0.46761
0.488184
0.566202
0.748337
0.427084
0.426969
0.426714
0.426189
0.425311
0.424765
0.43017
0.46651
0.560082
0.436114
0.436185
0.436436
0.437133
0.439218
0.446308
0.472555
0.56586
0.772846
0.418715
0.418639
0.418412
0.417952
0.417277
0.41742
0.425315
0.466199
0.548618
0.445176
0.445217
0.445352
0.445759
0.447079
0.451834
0.469834
0.535736
0.704089
0.421229
0.421209
0.421168
0.421146
0.421417
0.423458
0.434145
0.475808
0.561601
0.278857
0.278837
0.278747
0.278575
0.279533
0.279934
0.283821
0.309743
0.397954
0.225224
0.225179
0.224633
0.224235
0.223323
0.227648
0.234674
0.25546
0.381234
0.245117
0.245162
0.244387
0.243492
0.235372
0.244642
0.248759
0.279463
0.385862
0.255243
0.254839
0.265448
0.265982
0.265767
0.255384
0.262972
0.306653
0.400077
0.269966
0.270108
0.269459
0.267647
0.267632
0.270627
0.277946
0.310818
0.391708
0.220148
0.220021
0.219926
0.220045
0.220298
0.221565
0.232156
0.279196
0.384898
0.188275
0.188365
0.189228
0.189349
0.188886
0.190952
0.204825
0.259816
0.383599
0.279257
0.279286
0.279324
0.279931
0.280554
0.28281
0.293204
0.335894
0.446689
0.176764
0.17676
0.176711
0.17684
0.176184
0.179247
0.195452
0.254347
0.407374
0.289763
0.289816
0.289944
0.290876
0.287901
0.293138
0.306508
0.354165
0.447749
0.292136
0.292225
0.292348
0.292751
0.293357
0.297175
0.31106
0.361959
0.493619
0.30098
0.300988
0.301064
0.30129
0.302025
0.305267
0.319342
0.373479
0.517287
0.31387
0.313699
0.313732
0.313888
0.314601
0.318167
0.331075
0.382026
0.510615
0.360292
0.36046
0.360501
0.360633
0.361157
0.363557
0.374311
0.413694
0.524497
0.374004
0.374018
0.374059
0.37421
0.374812
0.377289
0.387376
0.424679
0.530128
0.36256
0.362572
0.362609
0.362766
0.363423
0.36617
0.377293
0.417099
0.509639
0.320219
0.320203
0.320174
0.320223
0.320792
0.323684
0.336557
0.381409
0.485365
0.351557
0.351562
0.351596
0.351755
0.352489
0.35587
0.369281
0.414598
0.512276
0.335933
0.335951
0.336026
0.33629
0.337277
0.341081
0.35538
0.402167
0.49976
0.243906
0.243885
0.24374
0.243467
0.242971
0.242075
0.242541
0.262169
0.344277
0.219756
0.219749
0.21984
0.219855
0.220617
0.22035
0.22581
0.254754
0.337098
0.244521
0.244512
0.247568
0.24797
0.248488
0.244925
0.247211
0.275181
0.356196
0.228588
0.228607
0.228751
0.228567
0.227844
0.226992
0.230559
0.263024
0.360127
0.228906
0.228789
0.228371
0.227934
0.227418
0.226861
0.229519
0.260856
0.359112
0.216805
0.216801
0.216681
0.216681
0.216637
0.217194
0.223542
0.262249
0.359182
0.205611
0.205632
0.205604
0.205524
0.205487
0.20628
0.213991
0.257883
0.356172
0.201088
0.20109
0.200961
0.200584
0.200029
0.199739
0.205136
0.24599
0.348245
0.228641
0.228652
0.228654
0.228592
0.228773
0.230352
0.238923
0.279052
0.38013
0.227798
0.22784
0.227857
0.227999
0.228373
0.230195
0.239647
0.282015
0.377509
0.271689
0.271669
0.271698
0.271824
0.272192
0.273947
0.282539
0.320436
0.404171
0.293736
0.293695
0.293607
0.293425
0.293142
0.293308
0.298525
0.330305
0.410946
0.31016
0.310055
0.309822
0.309301
0.308271
0.306678
0.307736
0.333014
0.416561
0.33203
0.331924
0.331666
0.331084
0.32993
0.32814
0.328081
0.346814
0.419963
0.338001
0.337922
0.337727
0.337311
0.336562
0.335692
0.337723
0.358299
0.420065
0.323074
0.322978
0.322779
0.322379
0.321731
0.321415
0.325472
0.350814
0.4103
0.308093
0.308027
0.307837
0.307466
0.306928
0.307
0.312572
0.341647
0.404708
0.322036
0.321954
0.321751
0.321357
0.320782
0.32073
0.325636
0.35259
0.411747
0.307855
0.307832
0.307777
0.307718
0.307888
0.309511
0.318083
0.350849
0.412422
0.319529
0.322335
0.315415
0.306598
0.319392
0.318189
0.312199
0.311357
0.301334
0.308925
0.298831
0.300077
0.291743
0.307827
0.295277
0.274011
0.27394
0.275467
0.284389
0.318815
0.283938
0.294692
0.294558
0.283438
0.278184
0.268637
0.26239
0.263311
0.26141
0.262184
0.266223
0.285038
0.287524
0.274826
0.265146
0.254212
0.259713
0.261735
0.308783
0.321321
0.340931
0.302167
0.293411
0.302237
0.293426
0.286385
0.28052
0.280833
0.29113
0.29117
0.291076
0.29938
0.29896
0.296473
0.269408
0.265549
0.263747
0.305356
0.282314
0.273065
0.280972
0.275902
0.269724
0.25904
0.255239
0.254952
0.258497
0.271091
0.255265
0.266939
0.294336
0.28012
0.266634
0.26267
0.247018
0.255005
0.313535
0.308266
0.306847
0.298654
0.295935
0.288402
0.283609
0.272636
0.266148
0.279216
0.275887
0.300528
0.277455
0.285999
0.292093
0.291562
0.293958
0.255051
0.263323
0.283854
0.279047
0.267046
0.259812
0.275684
0.258816
0.260671
0.261669
0.267252
0.257702
0.254719
0.27356
0.252573
0.266993
0.281549
0.271061
0.261066
0.259944
0.252683
0.313732
0.312297
0.289951
0.284093
0.29259
0.296225
0.285413
0.293085
0.296826
0.280332
0.28425
0.285684
0.273192
0.266416
0.277551
0.285493
0.290389
0.284524
0.26347
0.266342
0.263384
0.272439
0.262849
0.260301
0.250363
0.290095
0.298938
0.267067
0.264725
0.256964
0.248467
0.260812
0.235623
0.266319
0.286014
0.280905
0.259348
0.262441
0.300405
0.298307
0.304381
0.272981
0.267703
0.303601
0.297327
0.309607
0.35086
0.296446
0.282029
0.271756
0.270932
0.265225
0.264021
0.273845
0.277724
0.280252
0.283385
0.259127
0.254944
0.266943
0.291199
0.285206
0.282101
0.286871
0.304824
0.281386
0.269466
0.25671
0.246902
0.253125
0.272716
0.242569
0.263042
0.284762
0.263985
0.260938
0.292485
0.287512
0.289995
0.285029
0.285208
0.29762
0.328752
0.315004
0.31101
0.319188
0.300326
0.273656
0.263196
0.258176
0.262842
0.260169
0.268887
0.279193
0.296594
0.27201
0.279132
0.273593
0.274997
0.309836
0.299864
0.286987
0.280862
0.27637
0.281299
0.274763
0.254852
0.240289
0.25733
0.248587
0.236952
0.25439
0.279826
0.278981
0.295084
0.297844
0.306059
0.306655
0.313599
0.300988
0.309246
0.324633
0.313876
0.290634
0.296001
0.295426
0.251961
0.244617
0.254191
0.2607
0.252347
0.270019
0.300731
0.286261
0.287014
0.280036
0.27526
0.295239
0.303619
0.290666
0.2764
0.265706
0.265834
0.268869
0.270189
0.249459
0.228389
0.254915
0.231519
0.218638
0.247257
0.284861
0.316528
0.323041
0.324775
0.292999
0.316451
0.319665
0.29702
0.301286
0.303566
0.281171
0.268717
0.27699
0.276893
0.223745
0.240467
0.259339
0.272301
0.260408
0.287446
0.292635
0.287444
0.292183
0.269453
0.279027
0.27689
0.290449
0.281621
0.257757
0.25024
0.251059
0.265064
0.261437
0.238479
0.220341
0.24345
0.232322
0.222649
0.243327
0.342134
0.333076
0.308413
0.306348
0.291366
0.311171
0.297531
0.282706
0.272901
0.275956
0.264724
0.253786
0.266558
0.262806
0.236141
0.264587
0.281484
0.29289
0.285026
0.292148
0.289466
0.279579
0.280293
0.269502
0.273557
0.268771
0.279506
0.27373
0.237978
0.245465
0.256435
0.256489
0.240927
0.231375
0.250505
0.238914
0.243577
0.254885
0.343813
0.317299
0.309456
0.299557
0.286641
0.273319
0.286576
0.281244
0.263731
0.249495
0.261028
0.251447
0.257672
0.27552
0.252628
0.26874
0.279351
0.285783
0.29357
0.294766
0.286488
0.293677
0.275669
0.26668
0.256511
0.259553
0.265592
0.262857
0.260826
0.214422
0.243762
0.242582
0.249623
0.245943
0.250437
0.250907
0.270216
0.275244
0.320932
0.30702
0.311515
0.282906
0.290045
0.277061
0.273243
0.271664
0.256218
0.223008
0.238168
0.268047
0.26386
0.276688
0.272255
0.272092
0.270012
0.282415
0.292625
0.295927
0.294688
0.275627
0.266185
0.2697
0.267097
0.244385
0.242147
0.263865
0.242274
0.244487
0.216589
0.240661
0.262127
0.254568
0.259525
0.264083
0.271472
0.279912
0.334421
0.326402
0.315728
0.293127
0.276346
0.27088
0.254429
0.226799
0.262526
0.265794
0.221479
0.254958
0.285413
0.256967
0.271547
0.266785
0.274384
0.282569
0.294327
0.299997
0.290679
0.292117
0.274419
0.272209
0.249935
0.236942
0.231725
0.220341
0.256343
0.237506
0.239297
0.221896
0.245771
0.269988
0.258735
0.272092
0.264108
0.271194
0.349341
0.33518
0.316641
0.307781
0.28359
0.255131
0.247282
0.236635
0.236987
0.262562
0.25886
0.270525
0.281964
0.274862
0.271511
0.276177
0.277609
0.287856
0.293815
0.299641
0.288775
0.289772
0.287315
0.257302
0.243582
0.262942
0.230269
0.239489
0.222181
0.246242
0.236526
0.254668
0.225986
0.254485
0.260922
0.262602
0.262768
0.266952
0.354111
0.339329
0.328251
0.310611
0.292985
0.265692
0.242081
0.239544
0.23676
0.224156
0.280376
0.285543
0.274124
0.293656
0.284489
0.299269
0.286077
0.290872
0.299756
0.303903
0.293316
0.284435
0.275301
0.25877
0.282109
0.231492
0.249238
0.222674
0.216959
0.216624
0.246182
0.24472
0.271473
0.242105
0.257183
0.263242
0.266713
0.274218
0.353401
0.340268
0.33769
0.312166
0.298037
0.278178
0.25252
0.239963
0.248404
0.25777
0.252534
0.298629
0.308847
0.288423
0.299146
0.31204
0.306768
0.299688
0.295854
0.307758
0.299805
0.284137
0.277128
0.308482
0.248147
0.264593
0.226571
0.238724
0.219356
0.211107
0.225919
0.253477
0.265899
0.266473
0.255277
0.267623
0.273681
0.28047
0.353889
0.34185
0.333094
0.315297
0.298389
0.283821
0.267481
0.256744
0.260036
0.273286
0.289389
0.299047
0.31945
0.30329
0.29923
0.295919
0.30965
0.318194
0.314654
0.320445
0.307408
0.290352
0.255075
0.265835
0.295989
0.244811
0.257102
0.229578
0.231584
0.235467
0.243237
0.256337
0.264326
0.279811
0.273377
0.268895
0.276029
0.287633
0.356128
0.355346
0.309569
0.341554
0.307689
0.298469
0.293022
0.274141
0.279357
0.296542
0.304945
0.318366
0.326911
0.348627
0.326979
0.302261
0.300105
0.325941
0.31707
0.324313
0.310532
0.288762
0.294946
0.249785
0.258956
0.289103
0.248748
0.250599
0.241961
0.253563
0.263893
0.278139
0.280643
0.28065
0.293206
0.283526
0.275527
0.289197
0.355633
0.339228
0.344039
0.308716
0.317265
0.307701
0.309349
0.293341
0.298493
0.31206
0.321864
0.333111
0.348854
0.337913
0.331556
0.330466
0.309885
0.316438
0.341467
0.317009
0.323226
0.301012
0.282727
0.27761
0.23971
0.273263
0.259852
0.257951
0.259848
0.271722
0.284047
0.294177
0.29967
0.291348
0.297397
0.300722
0.285183
0.287399
0.357699
0.327253
0.339602
0.343904
0.313992
0.323879
0.310947
0.318432
0.316305
0.326816
0.342194
0.347613
0.363147
0.338856
0.343651
0.325376
0.328547
0.315186
0.312772
0.313238
0.293047
0.30924
0.296748
0.252346
0.284123
0.236377
0.273102
0.279112
0.278857
0.291045
0.301506
0.310074
0.311557
0.304409
0.295984
0.298947
0.301548
0.299552
0.421954
0.449467
0.43574
0.410536
0.409928
0.428185
0.424683
0.414988
0.424307
0.408821
0.412513
0.377213
0.358125
0.354168
0.35104
0.332041
0.303567
0.307719
0.307896
0.432346
0.41141
0.414332
0.40804
0.399295
0.401069
0.384457
0.376774
0.376761
0.353629
0.343424
0.333326
0.322609
0.31838
0.312866
0.300467
0.301632
0.291097
0.288742
0.419036
0.445338
0.436378
0.433387
0.428371
0.401861
0.394019
0.414866
0.407737
0.412385
0.397439
0.376363
0.374868
0.370598
0.370528
0.355605
0.32939
0.329379
0.325756
0.41426
0.42266
0.416023
0.411051
0.409343
0.399595
0.39666
0.393796
0.393158
0.373648
0.359061
0.338552
0.335669
0.327416
0.308999
0.297045
0.295778
0.294081
0.296462
0.419836
0.454923
0.45256
0.445453
0.445713
0.418705
0.406487
0.419762
0.401477
0.39503
0.382442
0.378349
0.367621
0.374192
0.373682
0.349482
0.340023
0.344002
0.330708
0.442305
0.414687
0.420017
0.416336
0.416678
0.42238
0.401053
0.399243
0.393619
0.381557
0.359469
0.351637
0.348342
0.345216
0.311808
0.320331
0.302678
0.286372
0.2851
0.407002
0.433649
0.436299
0.440986
0.452973
0.444426
0.431833
0.415789
0.414275
0.4006
0.392325
0.386356
0.378071
0.370177
0.369217
0.3473
0.342908
0.334132
0.325057
0.410672
0.413931
0.421578
0.422685
0.431765
0.423778
0.414173
0.4062
0.387374
0.387064
0.3764
0.367268
0.356267
0.357751
0.322297
0.324812
0.309103
0.279922
0.280551
0.431848
0.475077
0.454656
0.455372
0.459122
0.443677
0.424255
0.408644
0.4106
0.407552
0.40658
0.391888
0.393609
0.392306
0.373317
0.36089
0.353391
0.339262
0.311821
0.434825
0.427691
0.430565
0.433753
0.434707
0.421766
0.4089
0.407548
0.393972
0.391412
0.376033
0.367635
0.365078
0.336483
0.333088
0.33086
0.32102
0.293034
0.266283
0.411547
0.483084
0.483734
0.469133
0.47319
0.437214
0.438964
0.43218
0.419492
0.411801
0.414551
0.402517
0.390681
0.38039
0.37862
0.360649
0.363098
0.339315
0.311852
0.407154
0.444351
0.433853
0.437149
0.429859
0.4238
0.416035
0.41148
0.396094
0.38937
0.398534
0.382473
0.368805
0.337069
0.349074
0.35331
0.314965
0.280178
0.273921
0.432924
0.447923
0.471564
0.472618
0.477522
0.461013
0.455036
0.444816
0.431539
0.415233
0.41823
0.401769
0.397128
0.390779
0.398103
0.385995
0.359242
0.333165
0.312901
0.430021
0.426897
0.443258
0.439548
0.429841
0.428498
0.421256
0.403844
0.399464
0.388875
0.408011
0.376095
0.377933
0.354364
0.367219
0.34294
0.292879
0.281088
0.284872
0.438548
0.502903
0.501865
0.491847
0.506036
0.463393
0.463229
0.446113
0.433944
0.417201
0.417698
0.401061
0.400742
0.395616
0.399771
0.38471
0.348874
0.324413
0.318876
0.43329
0.449077
0.452508
0.442192
0.438628
0.440615
0.439845
0.42789
0.401939
0.401996
0.390865
0.384575
0.367457
0.365079
0.367319
0.324591
0.288574
0.292758
0.292099
0.482139
0.506361
0.509906
0.514867
0.513384
0.488279
0.46347
0.458755
0.440432
0.423998
0.423343
0.403208
0.398998
0.39349
0.393579
0.375459
0.344823
0.328703
0.340473
0.43575
0.444412
0.450973
0.456994
0.444544
0.435231
0.430879
0.428281
0.412751
0.406271
0.399116
0.379047
0.372275
0.363326
0.353861
0.322343
0.309341
0.311256
0.300646
0.490776
0.560137
0.535077
0.514399
0.52972
0.514228
0.476803
0.476473
0.454307
0.431671
0.427614
0.419868
0.397274
0.39819
0.38654
0.372462
0.338594
0.343262
0.346252
0.463582
0.466901
0.477324
0.47699
0.464015
0.456667
0.453566
0.444561
0.426555
0.424886
0.410336
0.375797
0.382259
0.37259
0.356103
0.32262
0.335268
0.326085
0.305281
0.47952
0.563346
0.520822
0.542954
0.548489
0.528733
0.5107
0.489481
0.473777
0.451787
0.437796
0.428859
0.41212
0.395531
0.378755
0.3647
0.356299
0.362103
0.348591
0.472165
0.497097
0.484425
0.486478
0.465042
0.465234
0.474221
0.451568
0.440912
0.433276
0.408094
0.387471
0.380746
0.375637
0.347659
0.337287
0.346664
0.332178
0.313764
0.538005
0.593434
0.602625
0.566061
0.569665
0.547302
0.531534
0.490121
0.486037
0.450391
0.44279
0.433076
0.430477
0.405132
0.386838
0.374985
0.379255
0.376946
0.355168
0.520043
0.510927
0.519713
0.519175
0.498111
0.501006
0.480938
0.458422
0.458881
0.429089
0.423226
0.405233
0.383649
0.370157
0.355019
0.345608
0.347739
0.332929
0.300009
0.506527
0.601639
0.659139
0.609414
0.576227
0.589709
0.555761
0.542388
0.519892
0.479717
0.471381
0.446802
0.429341
0.405977
0.392073
0.390133
0.376845
0.378096
0.364568
0.521236
0.512369
0.544828
0.533933
0.522828
0.494616
0.48896
0.501947
0.466151
0.446328
0.433722
0.41078
0.384909
0.361386
0.356792
0.351386
0.349262
0.338058
0.329707
0.612217
0.6819
0.700378
0.670998
0.664508
0.659008
0.579022
0.564669
0.527682
0.512377
0.487938
0.456027
0.423296
0.405502
0.399732
0.385515
0.376603
0.379163
0.368528
0.580631
0.562067
0.586181
0.555194
0.539084
0.522012
0.526602
0.50002
0.474516
0.462659
0.46465
0.408422
0.410051
0.363068
0.359725
0.354672
0.345692
0.339721
0.325678
0.560077
0.726384
0.740883
0.685248
0.646916
0.644823
0.589818
0.585865
0.54364
0.522411
0.50956
0.456958
0.425915
0.404849
0.404577
0.392368
0.386907
0.387816
0.369579
0.557527
0.565794
0.57689
0.573293
0.571799
0.545983
0.531618
0.51454
0.496607
0.478283
0.47569
0.416584
0.41458
0.389024
0.353847
0.361839
0.344529
0.33684
0.322773
0.518478
0.696942
0.787082
0.757631
0.720201
0.634187
0.611697
0.590256
0.566272
0.531964
0.508098
0.474876
0.444564
0.413245
0.402033
0.394695
0.391437
0.388357
0.371134
0.543645
0.526628
0.59447
0.61593
0.576122
0.574034
0.569976
0.525931
0.526325
0.500767
0.467997
0.44338
0.414497
0.403869
0.376899
0.364057
0.356059
0.334814
0.33151
0.567627
0.769959
0.735507
0.755398
0.714558
0.680904
0.659481
0.625498
0.587737
0.539578
0.518218
0.490263
0.454427
0.430529
0.401836
0.396372
0.400322
0.383364
0.370269
0.595091
0.560053
0.622144
0.621
0.616855
0.586478
0.566569
0.561944
0.537005
0.49146
0.480039
0.457978
0.431729
0.406101
0.390727
0.364874
0.36661
0.349208
0.333051
0.580814
0.674592
0.722664
0.712989
0.664975
0.666319
0.673504
0.634808
0.599064
0.561912
0.538915
0.50332
0.457597
0.438164
0.414605
0.402122
0.392547
0.389841
0.372028
0.561969
0.578246
0.546089
0.59802
0.623712
0.58672
0.588912
0.574277
0.546173
0.506634
0.492247
0.457165
0.442709
0.405289
0.392911
0.360825
0.363215
0.362584
0.334775
0.551304
0.62629
0.763331
0.721079
0.701887
0.620823
0.617574
0.648747
0.612051
0.581764
0.537664
0.511871
0.47284
0.441674
0.422463
0.408419
0.392349
0.385152
0.377496
0.601848
0.581351
0.604441
0.593222
0.591791
0.573297
0.570302
0.581214
0.552541
0.535598
0.482536
0.483441
0.435068
0.422584
0.389442
0.36894
0.350528
0.347746
0.337314
0.413621
0.43324
0.434957
0.469522
0.471717
0.411446
0.393586
0.393063
0.388068
0.373312
0.355557
0.356524
0.351021
0.350511
0.350041
0.35951
0.319717
0.307891
0.326054
0.422097
0.563282
0.52377
0.457795
0.418486
0.389667
0.384108
0.346699
0.35517
0.354982
0.361697
0.349981
0.36688
0.3487
0.326311
0.327445
0.328523
0.310679
0.330005
0.475342
0.55893
0.513014
0.418846
0.391615
0.369301
0.333848
0.297683
0.312524
0.301756
0.308481
0.320986
0.311804
0.324199
0.334857
0.324923
0.307389
0.311117
0.317538
0.476464
0.463876
0.442542
0.442444
0.354137
0.347229
0.310759
0.276626
0.290981
0.299676
0.303227
0.322814
0.332987
0.330196
0.315863
0.310358
0.299291
0.310289
0.323399
0.475741
0.422891
0.423363
0.402618
0.338315
0.293699
0.292394
0.290672
0.277624
0.288843
0.294293
0.286675
0.305094
0.309257
0.307022
0.299237
0.29425
0.31366
0.31986
0.449297
0.437503
0.394603
0.358754
0.324198
0.302326
0.267929
0.246879
0.231996
0.283788
0.311435
0.293538
0.310992
0.308705
0.30308
0.303007
0.307684
0.304403
0.319049
0.43948
0.457693
0.406483
0.360048
0.311804
0.276871
0.251237
0.231276
0.267362
0.270281
0.279336
0.287384
0.294818
0.322044
0.308945
0.309747
0.307135
0.315311
0.325952
0.501066
0.446626
0.416747
0.342527
0.315983
0.278571
0.241742
0.225528
0.232273
0.281006
0.281364
0.28678
0.300983
0.32179
0.329598
0.316605
0.314311
0.321176
0.333724
0.423238
0.431883
0.42964
0.330773
0.316837
0.26334
0.267641
0.236367
0.238872
0.294405
0.291008
0.300299
0.329297
0.345399
0.353023
0.345926
0.341812
0.325255
0.313275
0.464762
0.476019
0.450224
0.362631
0.340903
0.291459
0.269415
0.282233
0.234114
0.292667
0.308626
0.327035
0.349591
0.359131
0.354436
0.359263
0.364545
0.321813
0.324624
0.442136
0.48482
0.476381
0.401246
0.3647
0.327513
0.309145
0.313651
0.30603
0.327702
0.338639
0.357321
0.338014
0.35604
0.364725
0.352542
0.348085
0.332895
0.300273
0.515258
0.509244
0.528309
0.478124
0.338543
0.325729
0.353144
0.339822
0.358468
0.343707
0.353064
0.364901
0.355888
0.358582
0.365229
0.358862
0.322986
0.311237
0.320706
0.447595
0.531794
0.564225
0.534547
0.425337
0.424839
0.424331
0.386267
0.383524
0.366929
0.36065
0.365726
0.35455
0.360506
0.336323
0.338221
0.327682
0.295656
0.301833
0.519383
0.542923
0.567892
0.595452
0.594254
0.45806
0.466838
0.414919
0.385196
0.37478
0.365069
0.348683
0.340023
0.316046
0.309633
0.310472
0.307782
0.292976
0.302752
0.501659
0.491954
0.580841
0.651589
0.623932
0.522213
0.472536
0.4256
0.391222
0.370349
0.347401
0.34282
0.314896
0.309144
0.297833
0.289891
0.300483
0.289087
0.27179
0.419697
0.563954
0.574682
0.567788
0.595252
0.554686
0.472241
0.429758
0.397051
0.371265
0.337283
0.329225
0.315105
0.293076
0.298477
0.280193
0.29253
0.289525
0.274879
0.487692
0.512395
0.52945
0.55928
0.586241
0.517156
0.494845
0.470038
0.394349
0.372466
0.347739
0.325
0.319933
0.301724
0.27776
0.279657
0.266343
0.291554
0.283763
0.464046
0.537293
0.549881
0.571922
0.550819
0.500201
0.476211
0.478334
0.426117
0.376858
0.360758
0.340999
0.32107
0.313995
0.285045
0.277169
0.272382
0.271552
0.288716
0.459744
0.500267
0.525167
0.49635
0.483275
0.48037
0.464529
0.474288
0.445658
0.39761
0.372
0.351208
0.327516
0.314375
0.29957
0.27254
0.273306
0.258421
0.274576
0.428669
0.414746
0.406024
0.399089
0.387548
0.358772
0.357054
0.354341
0.342309
0.327196
0.321581
0.313127
0.31608
0.32656
0.315578
0.283345
0.278422
0.285057
0.284036
0.44951
0.416245
0.435922
0.395381
0.350767
0.335643
0.319678
0.307868
0.298083
0.305755
0.299602
0.298261
0.303216
0.325964
0.314465
0.285711
0.293306
0.281159
0.29118
0.428566
0.42183
0.400189
0.367598
0.32547
0.304623
0.260475
0.254253
0.275949
0.291315
0.295295
0.287126
0.30205
0.318578
0.296158
0.282946
0.296462
0.292306
0.296813
0.435588
0.407209
0.372995
0.355711
0.289939
0.283199
0.265087
0.235844
0.253063
0.278913
0.287206
0.272665
0.298849
0.315073
0.298664
0.282968
0.30163
0.294642
0.294913
0.442638
0.406963
0.366688
0.327253
0.27101
0.2487
0.231533
0.230453
0.251791
0.261381
0.268753
0.280599
0.28531
0.291195
0.297475
0.288928
0.295633
0.295827
0.293585
0.411035
0.404017
0.368896
0.304451
0.252112
0.262946
0.206873
0.205727
0.246785
0.247974
0.276424
0.272835
0.270267
0.289926
0.297628
0.291875
0.30378
0.30302
0.297567
0.426928
0.4184
0.338008
0.317156
0.255458
0.239678
0.226029
0.21475
0.240893
0.246757
0.262783
0.2763
0.283972
0.312288
0.310891
0.30311
0.311828
0.304773
0.288648
0.431496
0.393031
0.35203
0.307808
0.265086
0.247732
0.223173
0.217574
0.230171
0.262928
0.271378
0.285532
0.288514
0.341154
0.352453
0.315669
0.319771
0.309605
0.280137
0.441651
0.394447
0.382787
0.319986
0.272399
0.234908
0.257162
0.25193
0.25477
0.300739
0.300517
0.319102
0.324466
0.321311
0.350441
0.333683
0.312013
0.315124
0.276324
0.46933
0.399017
0.381009
0.343758
0.300081
0.280834
0.259452
0.286586
0.274529
0.310547
0.321603
0.328396
0.327184
0.345945
0.341182
0.341301
0.317018
0.28498
0.273463
0.468807
0.412798
0.4116
0.345525
0.326754
0.303104
0.327553
0.345903
0.340165
0.324124
0.334451
0.331695
0.331072
0.339836
0.335625
0.315551
0.309734
0.301757
0.273997
0.455619
0.439177
0.429305
0.421627
0.380746
0.36208
0.386342
0.371816
0.34522
0.339087
0.343103
0.354244
0.365726
0.317753
0.303562
0.310158
0.278934
0.296633
0.28635
0.452957
0.430036
0.42452
0.468593
0.419144
0.392612
0.408583
0.401365
0.366437
0.354076
0.336961
0.330937
0.304763
0.303599
0.296978
0.297154
0.28071
0.273525
0.290267
0.481719
0.443154
0.454292
0.48602
0.462757
0.43391
0.401828
0.405921
0.378686
0.343833
0.332011
0.295527
0.30129
0.274551
0.27801
0.284612
0.281063
0.252434
0.277155
0.491239
0.420594
0.444657
0.480987
0.488766
0.450648
0.418456
0.394163
0.354119
0.331731
0.318394
0.308438
0.281969
0.280148
0.277533
0.269299
0.282145
0.268359
0.261278
0.458266
0.429333
0.441888
0.466204
0.482389
0.452361
0.430057
0.385754
0.358195
0.329226
0.312023
0.30548
0.289038
0.274113
0.279525
0.257837
0.27513
0.280667
0.264046
0.441908
0.451381
0.450621
0.445495
0.455913
0.447117
0.42804
0.39115
0.371641
0.349156
0.32354
0.302672
0.297339
0.272861
0.269889
0.269749
0.26284
0.276671
0.276281
0.446217
0.425606
0.436983
0.444622
0.454456
0.418785
0.4131
0.410576
0.380872
0.358462
0.342026
0.319561
0.300823
0.286154
0.269563
0.269968
0.254127
0.263457
0.275836
0.44599
0.410705
0.419702
0.443577
0.435571
0.408231
0.407978
0.409975
0.399335
0.370892
0.356569
0.334553
0.30341
0.291625
0.283733
0.263392
0.261791
0.252898
0.268693
0.443281
0.513672
0.530998
0.519809
0.531824
0.487148
0.465478
0.470098
0.447383
0.397514
0.372303
0.352268
0.325787
0.309361
0.295758
0.249679
0.264484
0.251214
0.269076
0.461737
0.416563
0.411925
0.429223
0.424553
0.396177
0.399023
0.400275
0.394599
0.372462
0.361463
0.335441
0.300541
0.288312
0.282737
0.263043
0.270059
0.250111
0.266428
0.433226
0.517435
0.524639
0.531515
0.529326
0.48268
0.458322
0.476813
0.430778
0.385595
0.368842
0.352341
0.326465
0.307461
0.275451
0.270192
0.263754
0.258374
0.275563
0.429495
0.402662
0.425926
0.424475
0.420894
0.39567
0.397884
0.400222
0.386181
0.36732
0.348142
0.324495
0.301019
0.278315
0.260036
0.26164
0.241953
0.25591
0.268812
0.444568
0.532809
0.530553
0.571281
0.535722
0.485063
0.46325
0.483022
0.424749
0.389461
0.372509
0.34622
0.337279
0.311419
0.286213
0.283008
0.26393
0.285695
0.277042
0.41681
0.418303
0.435356
0.43087
0.418765
0.409625
0.409285
0.406416
0.387503
0.370046
0.349713
0.320289
0.300667
0.276012
0.269772
0.267095
0.25332
0.269249
0.266242
0.474461
0.540664
0.551149
0.585955
0.566057
0.593445
0.565828
0.453729
0.405568
0.391574
0.351698
0.356445
0.340236
0.321094
0.313398
0.289856
0.294689
0.294618
0.275741
0.44393
0.434065
0.430038
0.437442
0.426755
0.430189
0.42802
0.399348
0.368893
0.359217
0.341535
0.32715
0.301217
0.290635
0.286778
0.25985
0.2697
0.268946
0.260983
0.469993
0.554342
0.590956
0.642105
0.644238
0.598128
0.501976
0.438009
0.405923
0.364861
0.359147
0.343588
0.336941
0.321678
0.315008
0.308116
0.321123
0.302395
0.274044
0.445588
0.425154
0.444571
0.46906
0.456832
0.438755
0.419062
0.392157
0.352983
0.335399
0.331481
0.318899
0.308142
0.304593
0.285418
0.280968
0.287039
0.270505
0.267909
0.487725
0.596191
0.656237
0.660833
0.632954
0.568169
0.505248
0.412547
0.377632
0.366271
0.356091
0.355523
0.32959
0.326263
0.309322
0.33523
0.329838
0.296787
0.300199
0.444755
0.429943
0.452614
0.480088
0.496338
0.46054
0.408204
0.402525
0.366857
0.330611
0.318904
0.314204
0.308845
0.302167
0.293804
0.306379
0.29565
0.280515
0.27163
0.494748
0.56482
0.692219
0.686072
0.622219
0.527867
0.478755
0.412321
0.376173
0.365924
0.348136
0.362214
0.346357
0.337901
0.339559
0.358168
0.311192
0.302079
0.320324
0.443247
0.438713
0.495592
0.488045
0.48554
0.444574
0.413792
0.397767
0.363771
0.339293
0.331424
0.324281
0.315575
0.304664
0.305048
0.311075
0.306348
0.294307
0.286665
0.46951
0.595427
0.580143
0.604595
0.547159
0.458894
0.420193
0.42071
0.380723
0.372672
0.380179
0.34898
0.354596
0.34071
0.349338
0.343212
0.306442
0.33516
0.315211
0.433999
0.452266
0.480327
0.490026
0.464301
0.42276
0.409029
0.38093
0.350475
0.336912
0.328409
0.326279
0.315215
0.316857
0.328941
0.313813
0.300722
0.315292
0.284977
0.447382
0.467816
0.449401
0.460775
0.468589
0.431889
0.424885
0.401067
0.385366
0.360117
0.383469
0.359282
0.343755
0.348082
0.360446
0.33672
0.344157
0.328413
0.309454
0.47126
0.450394
0.428413
0.434797
0.431451
0.412606
0.399602
0.375644
0.354666
0.34756
0.33576
0.315215
0.342427
0.333111
0.31304
0.312684
0.31187
0.307578
0.278524
0.454477
0.461075
0.417272
0.386521
0.378361
0.410192
0.400563
0.366957
0.378683
0.367251
0.363544
0.365514
0.352959
0.350759
0.348645
0.343455
0.357159
0.356637
0.309346
0.45278
0.417773
0.433139
0.396033
0.408585
0.401386
0.371802
0.365333
0.352621
0.348527
0.344575
0.344302
0.357103
0.321205
0.326912
0.317801
0.317798
0.301416
0.284198
0.401454
0.422926
0.400612
0.341996
0.351576
0.357102
0.354421
0.332776
0.347319
0.34114
0.333212
0.367118
0.35348
0.347155
0.333605
0.355281
0.357521
0.336543
0.312058
0.437055
0.40112
0.399672
0.357566
0.344286
0.345718
0.333377
0.343961
0.358565
0.330094
0.337936
0.354921
0.332019
0.327788
0.327578
0.332835
0.323839
0.29629
0.284488
0.443446
0.418318
0.38456
0.328765
0.31857
0.315894
0.321878
0.322074
0.306235