/*--------------------------------*- C++ -*----------------------------------*\
| =========                 |                                                 |
| \\      /  F ield         | foam-extend: Open Source CFD                    |
|  \\    /   O peration     | Version:     3.1                                |
|   \\  /    A nd           | Web:         http://www.extend-project.de       |
|    \\/     M anipulation  |                                                 |
\*---------------------------------------------------------------------------*/
FoamFile
{
    version     2.0;
    format      ascii;
    class       volScalarField;
    location    "345600";
    object      epsilonHyd;
}
// * * * * * * * * * * * * * * * * * * * * * * * * * * * * * * * * * * * * * //

dimensions      [0 0 0 0 0 0 0];

internalField   nonuniform List<scalar> 
23248
(
0.0886081
0.0886938
0.0889479
0.0895573
0.0905253
0.0937712
0.100302
0.110543
0.122457
0.103276
0.10338
0.103668
0.104425
0.106222
0.110175
0.118819
0.136837
0.168702
0.0805134
0.0805687
0.0808227
0.081462
0.0825098
0.0857414
0.0923154
0.101942
0.114589
0.101067
0.101108
0.101389
0.102259
0.103913
0.107853
0.116671
0.135565
0.16842
0.0857129
0.0858065
0.0860712
0.0867203
0.0876381
0.0907917
0.0971618
0.106984
0.118018
0.10234
0.102423
0.102717
0.103612
0.105247
0.109121
0.117734
0.136044
0.167403
0.0929195
0.093004
0.0932716
0.0939141
0.0948841
0.0980479
0.104439
0.112567
0.124173
0.113271
0.113247
0.113537
0.114375
0.116011
0.119846
0.128415
0.146671
0.177987
0.0991642
0.0993064
0.0996039
0.100274
0.101166
0.104361
0.110683
0.120071
0.129966
0.112831
0.112887
0.113205
0.113962
0.115647
0.119518
0.12796
0.145847
0.176954
0.0770495
0.0772293
0.0775135
0.078155
0.0791835
0.0823291
0.0884576
0.0958905
0.106671
0.0970211
0.0970944
0.0974032
0.0981637
0.0998773
0.103832
0.11263
0.131452
0.164607
0.0666108
0.0667488
0.0670481
0.067731
0.0691969
0.0714513
0.0780575
0.0881054
0.0964625
0.102618
0.102638
0.10297
0.103772
0.1056
0.10964
0.118607
0.137536
0.170736
0.0961997
0.096445
0.096762
0.0974687
0.0990549
0.101005
0.107446
0.112264
0.117108
0.108011
0.108079
0.10841
0.109229
0.111086
0.115207
0.124289
0.143187
0.175576
0.0715127
0.0716964
0.0708917
0.071805
0.0734133
0.0767067
0.0833379
0.0927727
0.0966129
0.112201
0.112185
0.112467
0.113293
0.115203
0.119572
0.129144
0.149227
0.184353
0.0694704
0.0696974
0.0685903
0.0693808
0.0709179
0.0742856
0.0810509
0.0835793
0.0830655
0.113425
0.11352
0.113877
0.114738
0.116677
0.121062
0.130472
0.150312
0.183284
0.0716009
0.0717535
0.0719289
0.0727052
0.0744837
0.0784741
0.123828
0.0912762
0.0891603
0.112604
0.112745
0.113175
0.114204
0.116538
0.121533
0.132219
0.155045
0.188143
0.0679057
0.0680747
0.0684379
0.0692599
0.0709829
0.0743017
0.0824448
0.0826014
0.0647297
0.116351
0.116524
0.116974
0.118026
0.120358
0.125487
0.135594
0.156872
0.193521
0.0538256
0.0539718
0.0543446
0.0552256
0.0571218
0.0614628
0.0670132
0.0681034
0.0474588
0.111344
0.111414
0.111904
0.113067
0.115651
0.121306
0.133211
0.155376
0.193749
0.0252744
0.0254792
0.0259188
0.026927
0.0290624
0.0331558
0.0389182
0.0375546
0.063059
0.101896
0.1022
0.102795
0.104146
0.107107
0.113443
0.126387
0.150164
0.196122
0.0456306
0.0459625
0.046416
0.0475214
0.0498221
0.0540983
0.0594467
0.0530452
0.00886521
0.125493
0.125679
0.126338
0.12788
0.131255
0.13844
0.152952
0.178172
0.212516
0.0556943
0.0550269
0.0555819
0.0568205
0.0593532
0.0638772
0.0685286
0.0560123
0.0303545
0.16243
0.162627
0.163372
0.165106
0.168874
0.176862
0.192858
0.218959
0.246116
0.0928929
0.0930332
0.0936099
0.0948825
0.0974271
0.101775
0.106005
0.0938434
0.0504014
0.166748
0.167068
0.167904
0.169821
0.173942
0.182512
0.19912
0.224475
0.242017
0.089218
0.089438
0.0900666
0.0914504
0.094198
0.0988772
0.103355
0.0903159
0.0373032
0.160056
0.160344
0.161244
0.163298
0.16771
0.176895
0.194581
0.22165
0.251175
0.123088
0.123302
0.123899
0.125205
0.127791
0.132298
0.137697
0.133565
0.100367
0.146815
0.147091
0.147984
0.150005
0.1543
0.163134
0.180131
0.207152
0.234267
0.104189
0.104272
0.104525
0.105088
0.106532
0.109597
0.115803
0.127644
0.139389
0.0812111
0.0813705
0.0817387
0.082483
0.0886715
0.088129
0.0952416
0.127807
0.17529
0.0932692
0.0937957
0.101334
0.100721
0.101336
0.102423
0.111869
0.126018
0.136405
0.0984133
0.098566
0.100579
0.101222
0.102484
0.10455
0.110765
0.125566
0.139949
0.0965552
0.0965536
0.0970974
0.0980528
0.0995161
0.102588
0.109052
0.120902
0.140065
0.0920838
0.0922147
0.0927214
0.0934341
0.0950153
0.0983825
0.104993
0.116539
0.121121
0.0761628
0.0763514
0.0768226
0.0775991
0.079027
0.08236
0.0888727
0.0996316
0.120113
0.0839476
0.0841147
0.0843925
0.0851048
0.0865934
0.0899877
0.0963262
0.105557
0.113216
0.0678978
0.0680193
0.0683202
0.0690924
0.0705737
0.073895
0.0801166
0.0893368
0.0898469
0.0621113
0.0622237
0.062544
0.0629935
0.0664716
0.0691098
0.075481
0.0842137
0.101319
0.0633841
0.0635642
0.0639127
0.0646876
0.0664185
0.0697527
0.0761486
0.0822834
0.0772295
0.0856676
0.0858107
0.086149
0.0869428
0.0886838
0.0922116
0.0983395
0.104006
0.0965985
0.0997841
0.0998783
0.100205
0.100986
0.102688
0.106122
0.11159
0.115407
0.11077
0.117458
0.117527
0.117881
0.118685
0.120387
0.123653
0.128849
0.133445
0.131136
0.117798
0.117923
0.118311
0.11918
0.120967
0.12437
0.12985
0.135039
0.134066
0.114725
0.114888
0.115321
0.116279
0.118232
0.121925
0.127871
0.134183
0.147709
0.11994
0.120102
0.120549
0.121528
0.123504
0.127167
0.13292
0.138603
0.142563
0.11999
0.120178
0.120649
0.121675
0.123716
0.127447
0.133171
0.138671
0.150917
0.104339
0.104511
0.104992
0.106042
0.108125
0.111921
0.117712
0.123184
0.134883
0.0996269
0.0996601
0.099957
0.100645
0.102254
0.106216
0.115055
0.133275
0.168585
0.0760098
0.076042
0.0764176
0.0771666
0.0789976
0.0833087
0.0924426
0.108771
0.148505
0.0932852
0.0936525
0.0965151
0.0978422
0.0996446
0.10109
0.110086
0.132199
0.168608
0.0881505
0.0881294
0.0886242
0.0893953
0.0912957
0.0957007
0.105592
0.125548
0.163163
0.0913203
0.0914831
0.0918398
0.0925247
0.0945124
0.0991588
0.109352
0.129056
0.165443
0.0786464
0.0786686
0.0790734
0.0800073
0.0821429
0.0870641
0.097937
0.11964
0.159708
0.0734052
0.0734758
0.0738769
0.0748168
0.0769717
0.0819074
0.092556
0.113106
0.152638
0.0803491
0.0803938
0.080779
0.0817203
0.083905
0.088873
0.0996904
0.120403
0.156076
0.0767393
0.0768671
0.0772576
0.0782193
0.0804197
0.0854469
0.0961181
0.115869
0.144649
0.0744119
0.0744758
0.0748973
0.0759216
0.078279
0.0834564
0.0946051
0.115215
0.151721
0.0907856
0.0909528
0.0914163
0.0925008
0.09495
0.100437
0.111866
0.132526
0.163943
0.108588
0.108766
0.109245
0.110385
0.112972
0.118725
0.130983
0.15381
0.186741
0.127274
0.127477
0.127991
0.129215
0.131946
0.137908
0.150279
0.172375
0.199355
0.138484
0.138709
0.139267
0.140548
0.143346
0.149317
0.161516
0.183219
0.210253
0.133607
0.13383
0.134428
0.135793
0.138727
0.14489
0.157257
0.179231
0.210129
0.125168
0.125463
0.126129
0.127631
0.13083
0.137437
0.150436
0.173186
0.20879
0.117334
0.117561
0.118272
0.119868
0.123229
0.130076
0.143271
0.165731
0.199843
0.124894
0.12518
0.125914
0.127544
0.130941
0.137802
0.150955
0.173223
0.206309
0.108531
0.108806
0.10955
0.111205
0.114635
0.121513
0.134604
0.156765
0.191235
0.0980172
0.0962137
0.0947887
0.100104
0.0967412
0.0951649
0.0935294
0.0877069
0.0869841
0.0856218
0.0869051
0.0853514
0.0822169
0.0736299
0.0690143
0.0747955
0.0760146
0.0722644
0.0705
0.101433
0.10509
0.0958464
0.0967884
0.0936466
0.0949819
0.0923711
0.0886198
0.0855385
0.0865265
0.0834018
0.0867193
0.0813464
0.0773545
0.0783874
0.0763866
0.0743311
0.0640001
0.0781882
0.100474
0.100048
0.0935933
0.0959228
0.0985716
0.0920729
0.0875435
0.0853506
0.0865855
0.0857675
0.0780198
0.0807123
0.0820852
0.0799743
0.0749344
0.0683936
0.072122
0.0750261
0.0815049
0.101884
0.0989389
0.0946449
0.0922273
0.0945451
0.0904689
0.0872695
0.0843508
0.0812078
0.0922694
0.0733365
0.0750637
0.0767161
0.0729302
0.0779627
0.0759545
0.073052
0.0729266
0.0656824
0.0959493
0.0947265
0.095695
0.092323
0.0918321
0.0922592
0.0853836
0.0845627
0.0849128
0.0700447
0.0827429
0.0615421
0.0896242
0.0821722
0.0780624
0.0730555
0.0653568
0.0803478
0.0767229
0.0993503
0.0976892
0.0932117
0.0909149
0.0917381
0.0929645
0.0881884
0.0878324
0.0826161
0.086622
0.086921
0.0646264
0.0701134
0.0788646
0.0739303
0.0747116
0.0750904
0.0742829
0.0722793
0.0859919
0.0828013
0.0831671
0.0891158
0.0883095
0.0827372
0.0862712
0.0852772
0.0858738
0.0865952
0.0623978
0.0761033
0.084007
0.0923292
0.0998967
0.0526758
0.0644885
0.0646893
0.0739781
0.0921712
0.0928541
0.0866801
0.0852572
0.0864555
0.0899653
0.0844135
0.0910726
0.0967091
0.0846523
0.079126
0.0821369
0.0648761
0.0992548
0.0793002
0.0664531
0.0549562
0.0723196
0.0708528
0.0859966
0.0834891
0.0745109
0.0822192
0.0932408
0.0876912
0.087595
0.0936261
0.0798198
0.084708
0.0835391
0.0758508
0.0694175
0.0813435
0.0900799
0.0977454
0.0520298
0.069529
0.068113
0.087566
0.0844385
0.0810944
0.0781126
0.0897702
0.0907569
0.0949207
0.0938092
0.0968486
0.0936958
0.0812549
0.0934323
0.0762078
0.0647039
0.0958483
0.0809414
0.0609601
0.0725914
0.0739439
0.0840977
0.0830327
0.0820416
0.0813076
0.0851917
0.0963102
0.0906537
0.0933006
0.0911388
0.081125
0.07851
0.0840483
0.0686351
0.070597
0.0750281
0.0910127
0.094069
0.0694101
0.0678133
0.0854516
0.0822151
0.0838809
0.0871824
0.0764639
0.0893141
0.0931287
0.099449
0.0890211
0.085219
0.0861674
0.0766502
0.0882831
0.0728308
0.0616096
0.0931293
0.0822419
0.0582971
0.0578782
0.0854295
0.0868472
0.0846035
0.0832882
0.0806894
0.0948597
0.097455
0.0921176
0.079826
0.0823763
0.0801642
0.071959
0.0824291
0.0665043
0.0721376
0.0716481
0.0932845
0.0750327
0.0732474
0.0913976
0.0889849
0.0861309
0.0843243
0.0814594
0.104357
0.0906636
0.0950725
0.0901954
0.0797771
0.0745163
0.0807316
0.0720983
0.0881466
0.0707172
0.0635403
0.0909214
0.0798602
0.0581108
0.0879317
0.0866148
0.0799639
0.0998846
0.0823013
0.0893836
0.0902917
0.0919638
0.0887796
0.0758875
0.0761244
0.0750658
0.0655613
0.0879811
0.0653592
0.0726705
0.0683255
0.0946692
0.083524
0.0927123
0.0911167
0.0742366
0.0976329
0.078638
0.0820925
0.105695
0.0767476
0.0897921
0.0771883
0.0706544
0.0680961
0.0776286
0.0628499
0.0876256
0.0729427
0.0736613
0.0789338
0.0896402
0.0849285
0.0833938
0.0855487
0.0814431
0.096222
0.0814326
0.086672
0.0748266
0.0820685
0.0764112
0.0611168
0.0680463
0.0669882
0.0633776
0.083984
0.0678976
0.0726843
0.0724045
0.0853124
0.093499
0.0838293
0.0880345
0.0931798
0.0915274
0.0791167
0.0695746
0.0955328
0.0611234
0.0793342
0.0600424
0.0562263
0.066231
0.076839
0.0682593
0.0552972
0.0770557
0.0799613
0.0815074
0.0850764
0.085917
0.0808339
0.0835273
0.0824545
0.0910047
0.0748798
0.0717145
0.0636346
0.0727726
0.0718208
0.0580966
0.0687188
0.0571218
0.0731775
0.0730541
0.077189
0.0809786
0.0816388
0.0863673
0.0904834
0.0705229
0.0800237
0.0897603
0.083128
0.0731715
0.0541156
0.0858314
0.052972
0.0851814
0.0566761
0.0637412
0.0679779
0.0752575
0.0731142
0.0752262
0.0797666
0.0851776
0.0858915
0.0837645
0.0810156
0.0839915
0.0784915
0.0787411
0.0688165
0.0653633
0.0704564
0.0803509
0.0676336
0.0700352
0.0635917
0.0634075
0.068881
0.0765951
0.0773577
0.0808529
0.0856622
0.0918532
0.0806189
0.0814986
0.0862268
0.0750774
0.0686981
0.0682837
0.0667155
0.0391675
0.0845605
0.0487856
0.0724898
0.0553414
0.0552589
0.0725833
0.0732239
0.075777
0.0773731
0.0812127
0.0850929
0.078633
0.0667365
0.0753588
0.0779868
0.0692203
0.0710568
0.0818836
0.0530209
0.0575515
0.0798443
0.0681391
0.0664449
0.069514
0.0626522
0.0780512
0.0773056
0.0797946
0.0849239
0.0876381
0.0851864
0.069946
0.075135
0.0657262
0.0651142
0.0745415
0.0668966
0.0723218
0.0338452
0.082654
0.0484223
0.0765889
0.0598814
0.0592124
0.0784271
0.0745105
0.0760584
0.0790257
0.0856301
0.0770528
0.0722066
0.0606963
0.0670738
0.0690784
0.0606291
0.0643051
0.0597595
0.0491417
0.0672152
0.0518595
0.0576565
0.0705075
0.0692776
0.073872
0.0789349
0.0785862
0.0842104
0.0922351
0.0862003
0.0782347
0.0656536
0.0649137
0.072269
0.0422785
0.0692671
0.0509992
0.060931
0.0425358
0.0714364
0.0475834
0.0811847
0.0623775
0.0743301
0.0755245
0.0754357
0.079172
0.0884583
0.0800893
0.0693096
0.06875
0.0554022
0.0563455
0.0615085
0.0582303
0.0599593
0.0770506
0.049973
0.0612252
0.0693675
0.0583402
0.0735651
0.0699814
0.0803229
0.0796666
0.0814156
0.0938194
0.085948
0.0823707
0.071514
0.0754054
0.0363209
0.0699135
0.0418762
0.0681685
0.0640389
0.063561
0.0524542
0.0744408
0.0566461
0.0817001
0.0742884
0.0806763
0.0754088
0.0787289
0.0907953
0.0855529
0.0726838
0.064617
0.0506152
0.0485554
0.0523584
0.0575472
0.0571204
0.057457
0.0785438
0.0605577
0.0651208
0.0795802
0.0751445
0.0764715
0.0766718
0.079331
0.0835005
0.0953231
0.0888163
0.078549
0.0753059
0.0321731
0.0706875
0.0352814
0.0653888
0.0499405
0.0630082
0.072251
0.0670048
0.0677157
0.0748664
0.0668757
0.0778554
0.0805108
0.0798257
0.0817799
0.0927672
0.0871309
0.0744885
0.0722251
0.0826537
0.0454441
0.050906
0.0548879
0.0586075
0.0618911
0.0643073
0.0716656
0.0716934
0.0739243
0.0762714
0.0866516
0.082444
0.0815775
0.0829711
0.0925168
0.084501
0.0750744
0.0944097
0.0756279
0.033931
0.0663918
0.0437154
0.0602651
0.0653128
0.0689098
0.0691104
0.0743675
0.0799838
0.0788065
0.0829466
0.0823725
0.0812137
0.0848486
0.0907524
0.0727165
0.0866465
0.0469059
0.0709098
0.0837545
0.0496539
0.0554877
0.0610617
0.0655443
0.0711536
0.073688
0.0786797
0.0746788
0.0786048
0.0839338
0.0909518
0.0840178
0.084274
0.0854989
0.0814309
0.081348
0.051405
0.095234
0.074113
0.0399402
0.0642896
0.0556677
0.0649793
0.0725068
0.077601
0.0792558
0.0839638
0.0841014
0.0878339
0.0872404
0.0830949
0.0862816
0.0846888
0.0777965
0.0657193
0.082275
0.0693702
0.0730543
0.0610561
0.0627748
0.065104
0.0720709
0.076707
0.0808601
0.0801316
0.0878171
0.087976
0.0833028
0.0864719
0.0903934
0.0827878
0.0827009
0.0691001
0.0794852
0.079905
0.0638954
0.0995942
0.0610884
0.0680395
0.0680979
0.0750873
0.0790666
0.0845317
0.0873238
0.0897988
0.0867931
0.0899899
0.0892824
0.0857227
0.0886943
0.0793731
0.107359
0.0765887
0.0650532
0.0821758
0.0731095
0.0802056
0.0697
0.0740585
0.0800513
0.0821537
0.0872978
0.0866039
0.0937115
0.0808702
0.0877378
0.0843549
0.0863146
0.0926162
0.0828531
0.0891407
0.0702622
0.0759159
0.105739
0.0609055
0.113405
0.0692192
0.0787367
0.0844462
0.0866439
0.0921787
0.0949507
0.0960462
0.0923275
0.0901035
0.0915699
0.091424
0.0912942
0.212942
0.200483
0.194463
0.195205
0.194028
0.169094
0.169597
0.159998
0.145235
0.141954
0.131277
0.136907
0.139179
0.134518
0.123087
0.11321
0.113677
0.107004
0.107857
0.188956
0.22589
0.205941
0.201114
0.194926
0.176798
0.180704
0.174047
0.155136
0.157494
0.154423
0.145214
0.143044
0.138642
0.12463
0.116002
0.119789
0.115726
0.109949
0.216133
0.185273
0.183673
0.183112
0.182
0.19279
0.19184
0.168678
0.16833
0.158391
0.154091
0.150535
0.145052
0.141534
0.123478
0.113358
0.111478
0.104677
0.0979412
0.215976
0.21355
0.205435
0.197222
0.188197
0.191097
0.181493
0.175512
0.170273
0.161997
0.15342
0.152203
0.150497
0.144189
0.135378
0.12706
0.122091
0.114158
0.108089
0.203931
0.183683
0.180336
0.187342
0.186984
0.187581
0.18729
0.169145
0.166233
0.163718
0.156792
0.1472
0.14684
0.141793
0.127356
0.118725
0.116568
0.104085
0.100224
0.183105
0.214252
0.201668
0.198073
0.196455
0.184306
0.17876
0.171336
0.169254
0.164425
0.162104
0.153584
0.154752
0.145638
0.136309
0.127328
0.124467
0.108244
0.104532
0.229247
0.200499
0.194335
0.185029
0.171724
0.179389
0.178322
0.175864
0.168033
0.161041
0.151936
0.152773
0.140753
0.137443
0.128546
0.127686
0.119787
0.108712
0.10006
0.215375
0.215001
0.205989
0.20105
0.188625
0.184729
0.179293
0.173412
0.173021
0.169926
0.163032
0.160036
0.152683
0.135578
0.137615
0.134132
0.127323
0.117018
0.0987403
0.208946
0.187583
0.192707
0.182105
0.169568
0.178587
0.177474
0.172537
0.165573
0.15752
0.157662
0.152583
0.143839
0.13491
0.12984
0.130944
0.117862
0.105746
0.0911
0.202655
0.217526
0.206923
0.195885
0.184638
0.183673
0.182487
0.175641
0.17418
0.165244
0.166388
0.165163
0.149519
0.145124
0.140888
0.138523
0.123681
0.112493
0.0980699
0.213761
0.173745
0.175041
0.165618
0.160292
0.166327
0.161234
0.16882
0.169423
0.152708
0.148795
0.15369
0.14676
0.13988
0.132304
0.128313
0.115523
0.0998485
0.0849424
0.207995
0.205809
0.202277
0.18879
0.18251
0.179484
0.174794
0.174804
0.173333
0.164202
0.160404
0.159983
0.149377
0.146291
0.145355
0.130415
0.11487
0.108229
0.0934308
0.220324
0.198112
0.165777
0.170623
0.163759
0.158438
0.160769
0.163603
0.164463
0.156418
0.151996
0.14843
0.138789
0.137866
0.13191
0.118392
0.110183
0.0923063
0.0846291
0.211274
0.220581
0.205589
0.198423
0.190069
0.178466
0.172921
0.175195
0.170311
0.169608
0.15786
0.155998
0.141721
0.147343
0.145937
0.124313
0.11621
0.102247
0.095741
0.204011
0.177093
0.172266
0.169043
0.146946
0.163338
0.147789
0.15292
0.156966
0.150181
0.144594
0.144716
0.137816
0.137933
0.132747
0.116759
0.100815
0.0959311
0.0889376
0.207471
0.208479
0.205025
0.206298
0.193612
0.179703
0.166147
0.159197
0.164617
0.159102
0.155889
0.153198
0.144337
0.148195
0.137794
0.122699
0.109988
0.104225
0.101019
0.208978
0.187735
0.179659
0.158105
0.14815
0.158172
0.145623
0.148632
0.149474
0.150363
0.143852
0.141967
0.137466
0.134646
0.126264
0.111862
0.102116
0.103565
0.0960696
0.224918
0.224471
0.211244
0.197143
0.197009
0.188101
0.175322
0.166686
0.160942
0.15684
0.152744
0.152491
0.143122
0.144391
0.130925
0.117714
0.105373
0.10843
0.103842
0.21024
0.157214
0.157417
0.167262
0.145225
0.138878
0.153302
0.15243
0.154162
0.145948
0.139234
0.139328
0.136784
0.123316
0.121306
0.107234
0.107498
0.107088
0.0987649
0.214619
0.224565
0.210734
0.194194
0.189972
0.183389
0.172928
0.166741
0.164908
0.154663
0.145872
0.150381
0.142745
0.129931
0.121474
0.113794
0.112512
0.112484
0.103752
0.234856
0.172341
0.191215
0.170841
0.144153
0.150138
0.145299
0.138577
0.144668
0.148531
0.130331
0.131783
0.128508
0.120557
0.116782
0.109122
0.110764
0.105148
0.0927038
0.226002
0.213735
0.217139
0.197079
0.196129
0.192761
0.172814
0.16166
0.162362
0.157259
0.146243
0.141237
0.138574
0.12883
0.122576
0.117071
0.118711
0.111911
0.0900796
0.21425
0.146713
0.132372
0.145524
0.139411
0.147516
0.135172
0.14827
0.141385
0.13646
0.130222
0.123781
0.123174
0.121558
0.11517
0.110596
0.110387
0.104126
0.0936511
0.218941
0.220356
0.201759
0.194551
0.194366
0.184977
0.173673
0.170345
0.158742
0.154357
0.143234
0.134011
0.136505
0.125346
0.119123
0.118103
0.118182
0.108858
0.101827
0.266951
0.179642
0.11297
0.141856
0.146769
0.13055
0.13711
0.127543
0.136436
0.121187
0.123501
0.121738
0.12014
0.115043
0.11728
0.104956
0.109116
0.103518
0.0943371
0.237342
0.245441
0.203878
0.196512
0.192603
0.19718
0.18667
0.159205
0.158763
0.148333
0.140699
0.128718
0.129021
0.119061
0.119425
0.115907
0.114776
0.108009
0.0902447
0.217939
0.110362
0.0844155
0.103762
0.0943584
0.0993068
0.122369
0.122952
0.116693
0.107926
0.116875
0.119836
0.114808
0.111389
0.113571
0.106141
0.104148
0.103171
0.0962193
0.215682
0.2288
0.19123
0.20529
0.197888
0.190802
0.175477
0.164317
0.155278
0.145327
0.1232
0.127337
0.116432
0.114504
0.119082
0.112537
0.113869
0.110565
0.102818
0.258281
0.110751
0.0876413
0.121593
0.121181
0.117753
0.134211
0.116563
0.124184
0.112879
0.105361
0.1161
0.115343
0.1066
0.106496
0.104795
0.102364
0.0963206
0.0961499
0.262873
0.248934
0.228675
0.212304
0.193074
0.193358
0.181012
0.167766
0.153855
0.149147
0.123858
0.125018
0.123914
0.111949
0.118714
0.115915
0.112118
0.104801
0.0999976
0.32963
0.168203
0.0574293
0.0854138
0.106112
0.130764
0.12883
0.122135
0.122872
0.106876
0.102502
0.109738
0.11522
0.117136
0.1053
0.107944
0.10189
0.0962418
0.0946248
0.296694
0.307118
0.23025
0.19083
0.208659
0.185274
0.164297
0.166479
0.145256
0.132141
0.124572
0.117905
0.12492
0.116758
0.109926
0.116924
0.109047
0.100702
0.093546
0.312986
0.108352
0.102086
0.0805089
0.103504
0.118122
0.113367
0.103259
0.110093
0.0951426
0.105463
0.1093
0.113431
0.11738
0.110961
0.103944
0.100267
0.0954257
0.0926736
0.266931
0.290565
0.216629
0.200276
0.179324
0.185531
0.181779
0.158634
0.138332
0.133109
0.122561
0.113939
0.114402
0.121464
0.109491
0.109341
0.109785
0.096082
0.0906604
0.324693
0.200164
0.137025
0.107232
0.117471
0.117352
0.10095
0.102809
0.0918553
0.0983713
0.096503
0.0993946
0.110658
0.103484
0.111679
0.0971143
0.095406
0.0897419
0.0878324
0.298539
0.267249
0.27827
0.203168
0.165213
0.178895
0.163198
0.153263
0.136592
0.134146
0.120092
0.11415
0.107955
0.117657
0.113338
0.107417
0.104499
0.0921996
0.0836534
0.330599
0.227353
0.0735871
0.102035
0.0980471
0.151309
0.131021
0.0818038
0.0857806
0.094759
0.0984921
0.0987282
0.103466
0.104103
0.105575
0.0996183
0.0890915
0.0854638
0.0807703
0.255364
0.252974
0.211948
0.199682
0.187913
0.187885
0.174449
0.14127
0.137201
0.117509
0.12593
0.107081
0.113726
0.109765
0.115457
0.10643
0.102031
0.0989643
0.0833947
0.222893
0.207237
0.198532
0.140995
0.126025
0.147414
0.14541
0.136541
0.134212
0.131599
0.12434
0.12707
0.128872
0.126771
0.121694
0.111035
0.107913
0.106503
0.105838
0.173646
0.106387
0.087664
0.123397
0.125266
0.124083
0.109704
0.123975
0.112408
0.109901
0.108014
0.110998
0.106991
0.116661
0.122806
0.10924
0.0989787
0.103874
0.0949649
0.181596
0.103059
0.0720672
0.119241
0.11737
0.112627
0.1037
0.113081
0.100763
0.106736
0.106874
0.107029
0.113471
0.115212
0.110772
0.101751
0.0980757
0.0985279
0.0994219
0.228602
0.191105
0.132192
0.0755259
0.10932
0.0801641
0.0744672
0.105554
0.100802
0.0993898
0.102244
0.100387
0.104374
0.108966
0.110721
0.097293
0.0953475
0.101926
0.0979761
0.218675
0.194907
0.130247
0.0898502
0.10873
0.0906749
0.0751221
0.0738039
0.0891201
0.0941059
0.0981511
0.0998982
0.105395
0.107792
0.101227
0.0992102
0.101865
0.101357
0.0997228
0.212283
0.186267
0.121755
0.104177
0.0787404
0.06504
0.0780621
0.0729232
0.0940076
0.0867209
0.0859777
0.0972591
0.101797
0.104732
0.104987
0.102113
0.102621
0.105063
0.0990758
0.234033
0.161012
0.102304
0.0648813
0.0812682
0.0769338
0.0653758
0.0778337
0.0691487
0.0883374
0.0890138
0.0950845
0.100025
0.10415
0.10902
0.106655
0.107678
0.108337
0.0988563
0.166824
0.15416
0.0815279
0.0924131
0.0724604
0.0658637
0.0687757
0.0773572
0.0781121
0.0942527
0.0960159
0.100175
0.102188
0.114488
0.12263
0.118915
0.112254
0.109819
0.0921639
0.261256
0.181284
0.0857633
0.0971964
0.08485
0.0858542
0.0526184
0.0635226
0.0935852
0.0753637
0.108024
0.109344
0.113217
0.11835
0.124366
0.124823
0.109299
0.108825
0.0934232
0.217738
0.14273
0.0870233
0.104378
0.0777802
0.0813052
0.0816004
0.0622404
0.129565
0.106956
0.118764
0.121165
0.119855
0.120307
0.123626
0.114535
0.100568
0.0975857
0.0902692
0.255556
0.148045
0.0894766
0.0824263
0.0880428
0.0989072
0.100519
0.101461
0.110584
0.111962
0.124668
0.120558
0.126026
0.114477
0.115484
0.107085
0.0902368
0.0876393
0.08877
0.223731
0.182077
0.073397
0.0597953
0.144871
0.144464
0.112502
0.118768
0.105011
0.112165
0.117531
0.108863
0.118327
0.106549
0.0968451
0.09257
0.096015
0.0837748
0.0835155
0.276219
0.159097
0.0630231
0.0933446
0.157443
0.137429
0.115635
0.114551
0.0986917
0.104741
0.0985765
0.0985422
0.101135
0.0847398
0.0868692
0.0843499
0.0838835
0.0832506
0.076572
0.2519
0.182594
0.118405
0.0503513
0.0556178
0.120336
0.107171
0.0794889
0.0877888
0.0863578
0.0825532
0.0851742
0.076182
0.081265
0.0771679
0.0775281
0.0767523
0.0771529
0.0704318
0.234634
0.209271
0.120132
0.0404583
0.0455589
0.078192
0.0781893
0.0621599
0.0695647
0.0610274
0.0654835
0.0679534
0.0664894
0.0680769
0.0700935
0.0711298
0.0709482
0.0744656
0.0752675
0.330338
0.179397
0.139859
0.0822296
0.0323056
0.0397537
0.0489703
0.0412086
0.0452594
0.0452753
0.0572588
0.0565722
0.0624357
0.0619981
0.0598465
0.0639975
0.0659964
0.0714769
0.0773526
0.258813
0.221618
0.157534
0.0804838
0.0154226
0.0398402
0.0386604
0.0207642
0.0331525
0.0361119
0.0435864
0.0465317
0.0513819
0.0552666
0.0564784
0.0597394
0.0651805
0.069645
0.0741912
0.310306
0.189356
0.123997
0.0586413
0.0304226
0.0541611
0.0438735
0.014994
0.0189536
0.0288483
0.0315256
0.0357757
0.0436177
0.0497781
0.0535262
0.0570934
0.0597257
0.0663779
0.0702745
0.281221
0.22242
0.12862
0.116742
0.0889759
0.0585475
0.0472899
0.0101079
0.00680874
0.0126344
0.0191913
0.02765
0.0352013
0.0412023
0.0438748
0.0484225
0.0533504
0.0579385
0.0633445
0.193691
0.21122
0.203425
0.190616
0.187393
0.187897
0.162957
0.151814
0.146083
0.143023
0.134422
0.131232
0.133179
0.13522
0.125095
0.115405
0.116287
0.112982
0.1109
0.180241
0.220171
0.167134
0.173863
0.179619
0.157783
0.126328
0.131676
0.130559
0.123834
0.123603
0.122328
0.125509
0.124786
0.115205
0.112419
0.10644
0.114797
0.107971
0.197324
0.205692
0.184351
0.169065
0.161891
0.136389
0.131595
0.118791
0.110646
0.110937
0.11404
0.112471
0.114278
0.117962
0.113854
0.104196
0.105532
0.11048
0.103747
0.200951
0.219933
0.192834
0.148387
0.146649
0.103851
0.0932788
0.104567
0.106129
0.104454
0.104773
0.107375
0.113365
0.117272
0.105443
0.105072
0.105934
0.10691
0.101137
0.184978
0.208739
0.185117
0.1492
0.126911
0.107062
0.086469
0.0795299
0.0940102
0.103992
0.0966425
0.100005
0.111486
0.11328
0.103162
0.105764
0.103019
0.10643
0.10304
0.226074
0.192392
0.165096
0.13875
0.108426
0.0660875
0.0835045
0.0865224
0.0833509
0.0958792
0.0947925
0.0977167
0.108452
0.110329
0.109159
0.104974
0.101825
0.109214
0.101964
0.18893
0.171049
0.155962
0.0994432
0.0932428
0.0828622
0.0731429
0.0775659
0.0738483
0.0866903
0.0909366
0.0970628
0.106706
0.106228
0.105796
0.107278
0.108454
0.108846
0.100877
0.1846
0.190283
0.138329
0.107279
0.0861145
0.0692898
0.0632312
0.072885
0.0886253
0.0855614
0.0951046
0.0996277
0.111761
0.115159
0.110864
0.114236
0.112039
0.109401
0.0984566
0.179908
0.188629
0.122571
0.112222
0.0867214
0.0846672
0.048722
0.0546202
0.0894716
0.0732812
0.0985285
0.105045
0.119441
0.130227
0.127289
0.124215
0.111468
0.109932
0.0973208
0.171654
0.193485
0.136755
0.107895
0.0859582
0.0705649
0.0842204
0.0556468
0.110849
0.0928408
0.110171
0.120397
0.127034
0.125137
0.127
0.12016
0.105842
0.102273
0.0948371
0.192822
0.198902
0.13812
0.127512
0.0903147
0.0840707
0.0888047
0.0835093
0.0953961
0.110083
0.118508
0.119674
0.127001
0.122199
0.122064
0.1155
0.100707
0.0906065
0.0871514
0.230339
0.208224
0.157262
0.11604
0.121287
0.109233
0.0738001
0.0763227
0.0928886
0.106848
0.118689
0.113127
0.111789
0.108303
0.115219
0.102278
0.0995713
0.0912487
0.082037
0.238946
0.235961
0.191222
0.136292
0.144167
0.131157
0.0993545
0.0862272
0.0974884
0.0966955
0.101391
0.103788
0.107361
0.0971528
0.0960418
0.0905452
0.0879546
0.0876596
0.0776989
0.232976
0.242232
0.202289
0.15207
0.138181
0.125147
0.114031
0.0801743
0.0848819
0.0861581
0.084381
0.0912292
0.0798435
0.0828301
0.0810957
0.0807047
0.076242
0.0815767
0.0805171
0.222521
0.258823
0.222724
0.166658
0.123597
0.113694
0.0979125
0.0737519
0.073929
0.0678513
0.0722537
0.068338
0.0683297
0.0698106
0.0669385
0.0737368
0.0703143
0.0687267
0.0766216
0.247499
0.257559
0.217861
0.166527
0.118636
0.0981761
0.0702553
0.0588316
0.0536696
0.0478209
0.0557247
0.058385
0.0576924
0.0600451
0.0574692
0.0626556
0.0663232
0.0635294
0.0719457
0.246846
0.240065
0.204937
0.165837
0.121668
0.0938113
0.0700716
0.0505915
0.0390951
0.0360449
0.0360763
0.046622
0.0473897
0.0505315
0.052292
0.0534098
0.0590612
0.0653444
0.063458
0.242691
0.251006
0.202993
0.159799
0.114118
0.103613
0.0853969
0.0422208
0.0291039
0.0296388
0.0282448
0.0330054
0.040643
0.0425944
0.0463872
0.0494844
0.0532262
0.0611909
0.0602728
0.232855
0.252394
0.209126
0.161368
0.129328
0.103319
0.0834543
0.0472376
0.0179692
0.0172736
0.0167347
0.0196518
0.0304901
0.035998
0.0313049
0.0454494
0.0469386
0.0523048
0.0570599
0.269587
0.182662
0.111889
0.0734374
0.0228027
0.0455842
0.0340173
0.00101073
-0.00409072
0.00547845
0.0126535
0.0239316
0.0327745
0.0389008
0.0410266
0.0610823
0.0599841
0.0632804
0.0724486
0.215756
0.237864
0.202671
0.152207
0.123399
0.103653
0.0829139
0.0474568
0.0128068
0.011218
0.0094415
0.0133379
0.0273892
0.0329583
0.0272479
0.0412204
0.039904
0.0533934
0.0587739
0.269686
0.164905
0.0990973
0.0638824
0.0281617
0.0489069
0.0402195
-0.00414487
6.64097e-05
0.0124022
0.0197547
0.02422
0.035977
0.0439767
0.0490052
0.0518592
0.0539118
0.0616273
0.0653527
0.23766
0.23818
0.184533
0.150025
0.120375
0.100905
0.0768122
0.033177
0.01293
0.012987
0.0182033
0.0216366
0.0303766
0.0350903
0.0444061
0.0494872
0.050749
0.0591889
0.0590005
0.24517
0.159371
0.106694
0.0466964
0.0174957
0.0523492
0.0436423
-0.00052833
0.0162791
0.0232422
0.0309513
0.0384665
0.0434368
0.0475246
0.0517642
0.0566862
0.061461
0.0655875
0.0706011
0.24351
0.232437
0.192644
0.154306
0.125505
0.103346
0.0736975
0.0318716
0.021899
0.0258414
0.0249315
0.0361345
0.0388347
0.0438844
0.0478073
0.0494374
0.0544669
0.0616096
0.0603192
0.261978
0.176471
0.11243
0.0512741
0.022114
-0.0363109
-0.045383
0.0143661
0.0345516
0.0346234
0.0480497
0.0476108
0.0572207
0.0563746
0.05877
0.0626811
0.0654673
0.0691581
0.0765682
0.247589
0.243
0.212214
0.171475
0.136933
0.0947915
0.0630582
0.0392764
0.0445815
0.0361231
0.0449864
0.0475344
0.0539255
0.054743
0.0538554
0.0581252
0.0659415
0.0655033
0.0699318
0.269126
0.170104
0.101281
0.0189053
-0.0109363
-0.0187127
0.00285304
0.0368517
0.0403
0.0521776
0.0529503
0.0583896
0.0611328
0.0663963
0.0680067
0.0716593
0.0720234
0.0766167
0.079802
0.261149
0.262598
0.216156
0.165026
0.132822
0.0983204
0.0764083
0.055888
0.0532043
0.0522504
0.0553105
0.0633202
0.0609092
0.0649232
0.0640631
0.0709695
0.0719044
0.0710775
0.0739801
0.253328
0.161471
0.0638795
0.00924637
-0.00626634
0.0125997
0.0378984
0.0609961
0.0649832
0.0663658
0.0697525
0.0667073
0.0672458
0.0732783
0.0749044
0.076623
0.0812836
0.0856275
0.0736216
0.26573
0.267784
0.228728
0.171155
0.117297
0.093291
0.0867794
0.0497579
0.0512012
0.0674782
0.0692118
0.0741659
0.0679106
0.0723723
0.0729879
0.0805556
0.0786949
0.0797751
0.0774172
0.22787
0.150958
0.0255112
0.0131047
0.0286538
0.0525111
0.0451696
0.077537
0.0843072
0.0785517
0.0845893
0.0804458
0.0800256
0.0779979
0.0813695
0.0784608
0.0918022
0.0846234
0.0767776
0.254634