/*--------------------------------*- C++ -*----------------------------------*\
| =========                 |                                                 |
| \\      /  F ield         | foam-extend: Open Source CFD                    |
|  \\    /   O peration     | Version:     3.1                                |
|   \\  /    A nd           | Web:         http://www.extend-project.de       |
|    \\/     M anipulation  |                                                 |
\*---------------------------------------------------------------------------*/
FoamFile
{
    version     2.0;
    format      ascii;
    class       volSymmTensorField;
    location    "345600";
    object      epsilon;
}
// * * * * * * * * * * * * * * * * * * * * * * * * * * * * * * * * * * * * * //

dimensions      [0 0 0 0 0 0 0];

internalField   nonuniform List<symmTensor> 
23248
(
(0.228745 -2.61966e-05 -0.0855965 0.000609855 9.43052e-07 0.03647)
(0.228749 -9.71685e-05 -0.0855783 0.000817965 -0.000498107 0.0365143)
(0.228761 -0.000242005 -0.0855696 0.00159155 -0.00134083 0.0364913)
(0.228778 -0.000617723 -0.0854758 0.00339397 -0.00319416 0.0364999)
(0.229236 -0.00150894 -0.08509 0.00734039 -0.00757737 0.0349996)
(0.229339 -0.00334749 -0.0848077 0.0163092 -0.0175005 0.0356651)
(0.229524 -0.00791275 -0.0843168 0.0361091 -0.039937 0.0352721)
(0.23161 -0.0179023 -0.0838742 0.0824873 -0.0835703 0.0175322)
(0.233141 -0.0349376 -0.089389 0.21747 -0.119114 -0.083241)
(0.211615 0.000169977 -0.0948113 0.000704328 -9.13805e-05 0.0975097)
(0.211625 0.000250045 -0.0948063 0.00102796 0.000241751 0.0974885)
(0.211599 0.000431987 -0.0947333 0.00190484 0.000860236 0.0975016)
(0.211673 0.000722664 -0.0954741 0.00433298 0.00202758 0.0972675)
(0.211707 0.000930526 -0.0952642 0.00953235 0.00433939 0.0974278)
(0.211828 0.00205425 -0.0954724 0.0222916 0.00994471 0.0964059)
(0.211618 0.0042452 -0.0959235 0.0518858 0.0225251 0.0929545)
(0.21094 0.00826254 -0.0998982 0.114662 0.0494299 0.08491)
(0.207824 0.0152946 -0.100421 0.213483 0.110285 0.0847979)
(0.227152 2.52576e-05 -0.0756245 0.000719299 4.41329e-05 0.0136694)
(0.227154 -3.6064e-05 -0.0756254 0.0008632 -0.000493195 0.0136895)
(0.227151 -0.000109507 -0.0756318 0.00163294 -0.00137027 0.0136846)
(0.227083 -0.000292249 -0.0755356 0.0034618 -0.00323828 0.0138415)
(0.227283 -0.000808865 -0.0747549 0.00751865 -0.00758909 0.0127273)
(0.227275 -0.00184166 -0.074604 0.0167081 -0.0177475 0.0132413)
(0.227022 -0.0044382 -0.074024 0.0371744 -0.0409238 0.0127494)
(0.227431 -0.0107644 -0.0697083 0.0854169 -0.0864862 -0.00702046)
(0.229264 -0.0184277 -0.0745199 0.225483 -0.119838 -0.11098)
(0.225528 0.000175342 -0.064617 0.000952378 -0.000104425 0.07672)
(0.225539 0.000204652 -0.0646142 0.00107515 0.000247725 0.0767096)
(0.225477 0.000274002 -0.064574 0.00196843 0.000870325 0.0767216)
(0.225464 0.000460225 -0.0649568 0.00422704 0.00196515 0.0770848)
(0.225428 0.000621048 -0.0649427 0.00968206 0.0046248 0.0766301)
(0.225396 0.00121873 -0.0650502 0.0226285 0.0102951 0.0755346)
(0.224803 0.00227668 -0.06533 0.0530064 0.0230903 0.0722038)
(0.224004 0.0041306 -0.0681858 0.118083 0.051086 0.0646092)
(0.223476 0.00755009 -0.0687148 0.21716 0.114226 0.0646246)
(0.231737 -3.48082e-05 -0.00854328 0.000597932 2.47187e-05 0.024804)
(0.231733 -4.77232e-05 -0.00855073 0.00085002 -0.000421221 0.024836)
(0.231728 -3.92424e-05 -0.00856504 0.00165286 -0.00127183 0.0248326)
(0.231623 -4.61569e-05 -0.00847136 0.00350719 -0.00310229 0.0250311)
(0.231732 -0.000229961 -0.00759206 0.00756589 -0.00728577 0.0236164)
(0.231722 -0.000245449 -0.007607 0.0166636 -0.0172235 0.0239897)
(0.231542 -0.000799414 -0.00741561 0.0365146 -0.0395398 0.0234289)
(0.23356 -0.00322538 -0.00450255 0.082815 -0.0827096 0.00457647)
(0.237131 -0.0145546 -0.00325379 0.21816 -0.114609 -0.101238)
(0.239888 0.000196085 -0.0416443 0.000740874 -0.00010457 0.066391)
(0.239875 0.000195655 -0.0416473 0.00100405 0.000300154 0.0663892)
(0.239735 0.000211274 -0.0415806 0.00197031 0.000922043 0.0664464)
(0.239863 0.000318501 -0.0420125 0.00418553 0.0020452 0.0667865)
(0.239785 0.000245668 -0.0420016 0.00962938 0.0047371 0.0663256)
(0.239715 0.00027862 -0.0420214 0.0223858 0.0103896 0.0652616)
(0.239232 6.83926e-05 -0.0419774 0.0519413 0.023025 0.0620281)
(0.239592 -0.000565748 -0.0439816 0.113604 0.0516599 0.0549365)
(0.24143 -0.00158627 -0.0446998 0.205742 0.121098 0.0550382)
(0.264343 -1.40687e-05 -0.0113193 0.000623695 -9.37342e-05 0.0137915)
(0.264342 5.38039e-05 -0.0113353 0.000877362 -0.00053206 0.0137925)
(0.264345 0.000134213 -0.0113357 0.00169468 -0.00136746 0.0137754)
(0.26424 0.000289375 -0.0112957 0.00357829 -0.00318216 0.0139242)
(0.264211 0.000563606 -0.0102741 0.00765316 -0.00738061 0.0127877)
(0.26421 0.00133176 -0.0102356 0.0167235 -0.0171178 0.0132097)
(0.263787 0.00287584 -0.0097086 0.0365647 -0.0391545 0.0129653)
(0.261274 0.005077 -0.00213309 0.0821989 -0.0833789 -0.00577285)
(0.259494 0.0110038 0.00390527 0.221547 -0.11401 -0.108521)
(0.260907 0.0001744 -0.00720038 0.00117837 -0.000100419 0.0777271)
(0.260917 0.000154408 -0.00720594 0.00107957 0.000269638 0.0777451)
(0.260847 9.79781e-05 -0.00721569 0.00199111 0.000925139 0.077774)
(0.260887 0.000114346 -0.00776142 0.00424177 0.00202627 0.0779961)
(0.260845 -0.000145601 -0.00772314 0.00959919 0.00472133 0.0775887)
(0.260889 -0.000586995 -0.00764406 0.0220659 0.0103207 0.0765842)
(0.260711 -0.0017993 -0.00745114 0.0511232 0.0226917 0.0734106)
(0.260819 -0.00405236 -0.00873207 0.114123 0.0500474 0.0650713)
(0.259208 -0.00823485 -0.0127478 0.208348 0.115792 0.0664044)
(0.29784 -0.000107279 0.0657899 0.000514455 0.000135336 -0.000862132)
(0.297845 -3.29179e-05 0.0657664 0.000898886 -0.000369536 -0.000824867)
(0.297851 0.000101413 0.0657349 0.00172862 -0.00127061 -0.000767975)
(0.297812 0.000397909 0.0657139 0.003641 -0.0031885 -0.000629708)
(0.297697 0.000894791 0.0668703 0.00766428 -0.00746402 -0.00186476)
(0.297815 0.00231448 0.0665522 0.0166194 -0.0174072 -0.00135077)
(0.297928 0.0051063 0.0663231 0.0357569 -0.039303 -0.00163543)
(0.299727 0.00852378 0.070028 0.0774214 -0.0817954 -0.0169357)
(0.297599 0.00361107 0.0657781 0.204649 -0.123648 -0.112348)
(0.272762 0.000205811 -0.00332124 0.000937185 -2.69026e-05 0.0647949)
(0.272756 0.000146158 -0.00330086 0.00109135 0.000378595 0.0648131)
(0.272764 8.35561e-05 -0.00328369 0.00207224 0.000986304 0.0647791)
(0.272774 -3.78025e-05 -0.00325005 0.00437532 0.00220928 0.0647358)
(0.272803 -0.000325648 -0.00314324 0.00979249 0.00490501 0.0643457)
(0.2729 -0.000846989 -0.00285333 0.0222814 0.0105312 0.0633729)
(0.272733 -0.00230693 -0.0021255 0.0506238 0.022747 0.0605242)
(0.273951 -0.00662487 -0.00239889 0.110406 0.0474403 0.0531834)
(0.274058 -0.0184535 -0.00355942 0.203864 0.105931 0.0529385)
(0.202153 1.34311e-05 0.0304491 0.000353166 -6.31228e-05 0.0286428)
(0.202147 0.000134325 0.0304491 0.000923059 -0.00055637 0.0286178)
(0.202144 0.000346796 0.030439 0.00177801 -0.00143076 0.0286185)
(0.20202 0.0008064 0.0304149 0.00373323 -0.00331145 0.0287116)
(0.201049 0.00167244 0.032013 0.0079276 -0.00754723 0.0285745)
(0.201337 0.00394001 0.0316365 0.0171977 -0.0175165 0.0284525)
(0.200521 0.00901822 0.0317785 0.0373555 -0.0400772 0.0274968)
(0.192921 0.0207582 0.0439085 0.0825604 -0.0845168 0.0121904)
(0.168328 0.0197529 0.141958 0.20835 -0.127024 -0.0566657)
(0.240721 0.000193097 0.0284416 0.000959377 -1.69543e-05 0.0493828)
(0.240726 0.000139626 0.0284286 0.00117704 0.000392097 0.0493796)
(0.240712 2.48106e-05 0.0284328 0.00213289 0.0010331 0.0493647)
(0.240661 -0.000201091 0.0284704 0.00455544 0.00231965 0.0492747)
(0.240465 -0.000719613 0.0285772 0.0102608 0.00506439 0.0489056)
(0.240204 -0.00177398 0.0287657 0.0234416 0.0109423 0.0478515)
(0.239468 -0.00405155 0.029448 0.0535989 0.023773 0.0448242)
(0.23925 -0.009121 0.0303598 0.117145 0.0514377 0.0379598)
(0.24086 -0.0228412 0.0298301 0.209451 0.111715 0.043509)
(0.230541 -0.000210399 0.084085 0.00056156 0.000300749 -0.0312708)
(0.230558 -5.02557e-05 0.0840684 0.000970376 -0.000247736 -0.0312815)
(0.230559 0.00024869 0.0840294 0.00185513 -0.00121861 -0.0312699)
(0.230556 0.000876884 0.0839771 0.00386809 -0.00328492 -0.0312314)
(0.231005 0.0022781 0.0840797 0.00814158 -0.00804185 -0.0315563)
(0.229417 0.00544556 0.0853297 0.0178172 -0.018977 -0.0328801)
(0.229346 0.0126619 0.0851139 0.038498 -0.042922 -0.0336719)
(0.23191 0.0256502 0.0913953 0.0858304 -0.0888082 -0.0534246)
(0.227852 0.0381994 0.121488 0.225282 -0.120091 -0.163747)
(0.259019 0.000180082 0.0469762 0.00117994 7.10227e-05 0.0476562)
(0.25901 2.7392e-05 0.046978 0.00122702 0.000428611 0.0476772)
(0.258993 -0.00014828 0.0469764 0.00225411 0.00109354 0.047664)
(0.25896 -0.000483611 0.0470066 0.00480078 0.00245207 0.0475551)
(0.258895 -0.00119695 0.0470393 0.0106355 0.00528177 0.04727)
(0.258719 -0.00270603 0.0474508 0.0242956 0.0112751 0.0459042)
(0.257904 -0.00603951 0.0484727 0.0552835 0.0246075 0.0426343)
(0.25776 -0.0127811 0.0492326 0.120009 0.0522903 0.0348394)
(0.257372 -0.02648 0.0485194 0.215139 0.112317 0.0396983)
(0.246759 1.68563e-05 0.117332 0.000201113 -0.000117735 0.0416392)
(0.246749 0.000214079 0.117316 0.000968222 -0.000642341 0.0416173)
(0.247034 0.000563105 0.117151 0.00190144 -0.00160682 0.0413507)
(0.247103 0.00133172 0.117052 0.00388626 -0.0036324 0.0414167)
(0.247268 0.00347874 0.116723 0.00820923 -0.0083841 0.0416871)
(0.244839 0.00685257 0.12093 0.0175179 -0.0188557 0.0406581)
(0.245211 0.0157895 0.120005 0.0368777 -0.042502 0.0402509)
(0.232544 0.0320508 0.135769 0.0805812 -0.0903498 0.0236667)
(0.211144 0.0462924 0.176682 0.216561 -0.131061 -0.0763823)
(0.27629 0.000139553 0.0505325 0.00104087 -6.53055e-05 0.0467004)
(0.276298 -8.37328e-06 0.0505194 0.00125107 0.000414286 0.0466872)
(0.27631 -0.000255514 0.0505086 0.00234261 0.00106213 0.0465766)
(0.276299 -0.000684021 0.0505506 0.00496481 0.00235465 0.0464242)
(0.276211 -0.00159969 0.0507444 0.0110048 0.00501764 0.046043)
(0.275947 -0.00354042 0.0512885 0.0249064 0.0107756 0.0447671)
(0.275201 -0.00768086 0.0526308 0.0559515 0.0229513 0.0417128)
(0.273458 -0.0166599 0.0556317 0.121488 0.0488367 0.0346155)
(0.266568 -0.0374357 0.0589938 0.217383 0.104202 0.0427777)
(0.237074 -0.000255851 0.140149 0.00047639 0.00019935 -0.0230128)
(0.237008 4.98315e-05 0.14014 0.00100802 -0.000446247 -0.0229272)
(0.235315 0.00026322 0.141888 0.0019944 -0.00126129 -0.0246341)
(0.235377 0.00128096 0.141643 0.00387035 -0.00349302 -0.0238319)
(0.235396 0.00329484 0.141435 0.00828513 -0.00851822 -0.0234414)
(0.235825 0.00792677 0.141377 0.0179984 -0.0200499 -0.0237034)
(0.236153 0.0186016 0.141602 0.0386026 -0.0450694 -0.0247423)
(0.238319 0.0372255 0.150583 0.0843801 -0.0934836 -0.0443806)
(0.215442 0.0516794 0.191413 0.228238 -0.125909 -0.153841)
(0.2649 0.000149581 0.0726883 0.0012967 -5.97568e-06 0.0704054)
(0.264897 -2.00179e-05 0.0727049 0.00126897 0.000333273 0.0703906)
(0.26486 -0.000271096 0.0728824 0.00243374 0.000962556 0.0701061)
(0.264825 -0.000745713 0.0729851 0.00514247 0.00231054 0.0699119)
(0.264716 -0.00173417 0.0731353 0.0114622 0.00497367 0.0694307)
(0.264421 -0.00377529 0.073437 0.0263293 0.0107481 0.0679656)
(0.263587 -0.00803265 0.0747301 0.0594543 0.0236368 0.0643906)
(0.262873 -0.0170988 0.0769753 0.127351 0.0487788 0.0574557)
(0.263852 -0.0351728 0.0758361 0.228627 0.0983722 0.0605807)
(0.215216 2.61791e-05 0.200498 0.000425448 -5.15982e-05 -0.00723058)
(0.215064 0.000365443 0.200458 0.00109445 -0.000752934 -0.00706656)
(0.213354 0.000699464 0.20308 0.00201965 -0.0017979 -0.00960307)
(0.213442 0.00191356 0.202921 0.00401587 -0.00410524 -0.00931534)
(0.213526 0.004129 0.202741 0.00813912 -0.00915284 -0.00891153)
(0.212696 0.00858288 0.202403 0.0170955 -0.0211512 -0.00693505)
(0.206442 0.0226212 0.19623 0.0417853 -0.0467652 -0.00507469)
(0.188216 0.0451368 0.221099 0.0863351 -0.100126 -0.0238128)
(0.186503 0.0545244 0.258397 0.235533 -0.135884 -0.172839)
(0.267902 0.000244809 0.100388 0.000999443 -0.00014461 0.0713723)
(0.267903 4.10438e-05 0.100387 0.00130152 0.000267406 0.0713555)
(0.267874 -0.000263858 0.100431 0.00259009 0.000915331 0.071166)
(0.267843 -0.000815664 0.10055 0.00543089 0.00229666 0.0709403)
(0.267765 -0.00200935 0.10075 0.0117977 0.00488896 0.0704691)
(0.267475 -0.00446461 0.10109 0.0272567 0.00990377 0.0684544)
(0.266351 -0.00998934 0.10277 0.0628787 0.0230339 0.0621853)
(0.264966 -0.0221909 0.106112 0.131274 0.0522261 0.0546969)
(0.26591 -0.048278 0.103856 0.224037 0.108537 0.0599048)
(0.200828 -0.000469795 0.182613 0.00057076 0.000373498 0.0134036)
(0.200907 -3.44685e-05 0.18264 0.00100789 -0.0003536 0.013346)
(0.201311 0.000554561 0.182843 0.00202879 -0.00172167 0.0124469)
(0.2013 0.00208867 0.182791 0.00418466 -0.00428398 0.0126308)
(0.201377 0.00508254 0.182721 0.00938118 -0.010231 0.0126929)
(0.199955 0.0102801 0.185913 0.024235 -0.0227288 0.0112324)
(0.282357 0.014655 0.132314 0.0624712 -0.0271755 0.0266562)
(0.198924 0.0470912 0.208949 0.101579 -0.0977501 -0.0266736)
(0.173312 0.0555054 0.265727 0.247408 -0.120817 -0.153239)
(0.268286 6.23176e-05 0.121427 0.00102042 -4.62581e-05 0.0685065)
(0.268281 -9.87032e-05 0.121438 0.00148315 0.000370741 0.0684711)
(0.268241 -0.000371166 0.121456 0.00293494 0.00105301 0.0683487)
(0.268164 -0.000992993 0.121565 0.00633331 0.00249351 0.0681147)
(0.268046 -0.00252404 0.121844 0.013888 0.00576508 0.0676805)
(0.268651 -0.00682332 0.121767 0.0285035 0.0132504 0.0674446)
(0.272561 -0.0135217 0.112898 0.0561223 0.0186695 0.0679743)
(0.268433 -0.0208497 0.123578 0.138269 0.0475734 0.058433)
(0.270992 -0.0478822 0.11819 0.2311 0.106293 0.0623381)
(0.229156 4.88273e-07 0.223785 0.000684742 -7.68414e-05 -0.0261238)
(0.22918 0.0004861 0.223739 0.00111575 -0.000904983 -0.0260711)
(0.229237 0.00124914 0.223688 0.00205499 -0.00230311 -0.0259785)
(0.229362 0.0028555 0.223538 0.00418516 -0.00523344 -0.025767)
(0.22961 0.00644767 0.223322 0.00891241 -0.0117421 -0.0255738)
(0.232457 0.0173205 0.221202 0.017078 -0.0255547 -0.0266302)
(0.207393 0.0343705 0.213654 0.0392788 -0.0616096 0.000662792)
(0.211087 0.0571553 0.242663 0.0821368 -0.120477 -0.0454191)
(0.166945 0.0904389 0.329929 0.245323 -0.16016 -0.218079)
(0.285737 0.000153494 0.137211 0.00106142 -7.3602e-05 0.0622557)
(0.285728 -7.24934e-05 0.137232 0.00162524 0.000354827 0.0622193)
(0.285706 -0.000405089 0.137291 0.00310995 0.0010788 0.0621068)
(0.285645 -0.00107009 0.137449 0.00659458 0.00252687 0.0618381)
(0.285518 -0.00241397 0.137831 0.0143551 0.00557398 0.0612014)
(0.284923 -0.0049641 0.139028 0.0317797 0.0115055 0.059759)
(0.282432 -0.0109449 0.145022 0.0708171 0.0258452 0.0535343)
(0.281209 -0.0239639 0.147737 0.145811 0.0547361 0.0435949)
(0.287659 -0.0525082 0.137613 0.241818 0.108195 0.0510856)
(0.18787 -0.0005355 0.291529 0.000806987 0.000441649 -0.0272001)
(0.188 0.000245022 0.291419 0.0010195 -0.000783225 -0.027104)
(0.188109 0.00122242 0.291289 0.00188838 -0.00259839 -0.0269638)
(0.188391 0.00319064 0.290931 0.0038555 -0.00623844 -0.0265694)
(0.189019 0.00743587 0.290125 0.00809237 -0.0139602 -0.025746)
(0.190264 0.0166631 0.287801 0.0177102 -0.0305301 -0.0235856)
(0.19032 0.035654 0.28959 0.0385274 -0.065869 -0.027808)
(0.179011 0.0691258 0.310734 0.089372 -0.130657 -0.0640726)
(0.118529 0.0607964 0.413211 0.26376 -0.146352 -0.239913)
(0.301414 -7.22623e-05 0.159272 0.00149351 0.000121102 0.0311237)
(0.301354 -0.000248303 0.159398 0.00197173 0.000608467 0.0309155)
(0.301303 -0.000564356 0.15949 0.00361061 0.00141424 0.0307992)
(0.301173 -0.00120031 0.15971 0.00754676 0.00306095 0.0304808)
(0.300823 -0.00248018 0.160241 0.016442 0.00644554 0.029688)
(0.299859 -0.00527028 0.161575 0.0363792 0.0134691 0.0276798)
(0.297884 -0.0118686 0.164319 0.079112 0.0281532 0.0226376)
(0.294619 -0.0278788 0.169177 0.157741 0.0592117 0.0137694)
(0.298624 -0.0626456 0.157638 0.249633 0.118335 0.0329889)
(0.213252 7.46883e-05 0.315335 0.000727373 -0.000108199 -0.138156)
(0.213464 0.000829042 0.315335 0.00109022 -0.00143753 -0.138117)
(0.213579 0.00206542 0.315191 0.00211921 -0.0036257 -0.137942)
(0.213843 0.00456167 0.314815 0.00438816 -0.00802139 -0.13745)
(0.214354 0.00987933 0.314082 0.00933256 -0.0174156 -0.136499)
(0.215 0.0211696 0.313191 0.0199479 -0.0375273 -0.135481)
(0.213906 0.0440668 0.315553 0.0430616 -0.0786949 -0.140213)
(0.19675 0.0796132 0.345224 0.107813 -0.143375 -0.1919)
(0.155962 0.0577158 0.399738 0.301343 -0.116944 -0.268128)
(0.295332 -5.84913e-05 0.189823 0.0012859 0.000127697 0.00907005)
(0.295308 -0.00029711 0.189845 0.00221667 0.000695981 0.00907456)
(0.295235 -0.000686374 0.189952 0.00420799 0.0016192 0.00894286)
(0.295063 -0.00148671 0.190217 0.00884112 0.00350134 0.00853305)
(0.294673 -0.00317816 0.190826 0.0191197 0.0074046 0.00752915)
(0.293799 -0.00682706 0.192252 0.0414958 0.0155085 0.00503505)
(0.291908 -0.0150831 0.195425 0.0880514 0.0327043 -0.000799264)
(0.289493 -0.0349361 0.199263 0.169357 0.0700888 -0.00835849)
(0.305011 -0.0750415 0.172265 0.246724 0.13756 0.0366315)
(0.147252 4.75915e-05 0.315912 0.000950378 -4.05801e-05 -0.0113107)
(0.147328 0.000968666 0.315489 0.00138035 -0.00141379 -0.0108212)
(0.147472 0.00248097 0.315335 0.00247388 -0.00370691 -0.0106978)
(0.147836 0.00549035 0.314931 0.00502395 -0.00823381 -0.010296)
(0.148504 0.011807 0.314207 0.0105555 -0.0177665 -0.00959296)
(0.149293 0.0249929 0.313552 0.0223021 -0.0377909 -0.00930067)
(0.146747 0.0511015 0.318044 0.048376 -0.077876 -0.0167828)
(0.117075 0.0910162 0.361209 0.12089 -0.142258 -0.0788298)
(-0.00686348 0.0195968 0.530118 0.333074 -0.0642057 -0.299615)
(0.291817 -4.72967e-05 0.18743 0.0020115 8.14552e-05 0.082649)
(0.291753 -0.000359907 0.187493 0.00267844 0.000677771 0.0826062)
(0.291651 -0.000901851 0.187601 0.00487271 0.00164513 0.0824904)
(0.291423 -0.00196426 0.187873 0.0100831 0.00354248 0.0821339)
(0.290911 -0.00416411 0.188517 0.0216137 0.00744099 0.0812409)
(0.289753 -0.00885085 0.190034 0.0464968 0.0155911 0.0790713)
(0.287268 -0.0196883 0.193267 0.0969851 0.0335601 0.0746029)
(0.283365 -0.0472303 0.197155 0.179618 0.0755684 0.0715339)
(0.286676 -0.103011 0.184905 0.249745 0.151056 0.101126)
(0.0510679 0.000466281 0.348805 0.00135525 -0.000147763 0.11466)
(0.048886 0.00151212 0.349959 0.00162691 -0.00140169 0.114568)
(0.049216 0.0035308 0.349705 0.00278692 -0.0035149 0.114743)
(0.0497376 0.00774252 0.349251 0.00559995 -0.00772392 0.115124)
(0.0506785 0.0164703 0.348444 0.0115919 -0.0164572 0.115789)
(0.0514382 0.0343628 0.347914 0.0241171 -0.0344279 0.116076)
(0.0443911 0.0688752 0.355004 0.0523015 -0.0693193 0.108893)
(-0.0195966 0.114875 0.41627 0.137737 -0.117729 0.0498965)
(-0.173176 -0.0815064 0.55334 0.342331 0.0620796 -0.0780923)
(0.249774 -5.62038e-05 0.175498 0.00213663 6.27696e-05 0.23538)
(0.249571 -0.000476258 0.17563 0.00301364 0.000561156 0.235297)
(0.24941 -0.00124569 0.175748 0.00548599 0.00140505 0.235219)
(0.249085 -0.00269482 0.176016 0.0112223 0.00300673 0.235011)
(0.248337 -0.00564233 0.176655 0.0238059 0.00624019 0.23448)
(0.246708 -0.0118465 0.178073 0.0506334 0.0129562 0.233246)
(0.243631 -0.0268178 0.180668 0.10407 0.0284218 0.230872)
(0.240099 -0.0657137 0.182476 0.187274 0.0661817 0.229502)
(0.251278 -0.139182 0.167111 0.243555 0.132258 0.243516)
(-0.0947804 0.000112405 0.200363 0.00153821 -1.22765e-05 0.371921)
(-0.0946317 0.00175518 0.20027 0.00177029 -0.000889547 0.371961)
(-0.0942928 0.00442086 0.20014 0.00311873 -0.00227508 0.372004)
(-0.0936436 0.0096314 0.199889 0.00620268 -0.00496635 0.372088)
(-0.0925813 0.0202681 0.199514 0.0126658 -0.0104686 0.372197)
(-0.0926177 0.0416668 0.199801 0.0260191 -0.0215991 0.371923)
(-0.106509 0.0817943 0.206829 0.0561584 -0.0428618 0.368366)
(-0.210977 0.129773 0.256699 0.148028 -0.0726068 0.344479)
(-0.453827 -0.151929 0.386547 0.332473 0.0353972 0.272558)
(0.144392 -0.000144803 0.139992 0.00226111 9.5503e-05 0.353592)
(0.144251 -0.000690055 0.140041 0.003379 0.000420705 0.353574)
(0.144024 -0.00167219 0.140126 0.0061474 0.000993694 0.35354)
(0.143516 -0.00357282 0.140341 0.012499 0.00210519 0.353449)
(0.142357 -0.00742658 0.140847 0.0262424 0.00431837 0.353228)
(0.139663 -0.015636 0.141864 0.054982 0.00896985 0.352892)
(0.135131 -0.0355919 0.143778 0.110119 0.019706 0.35211)
(0.132475 -0.0894166 0.14447 0.189395 0.0463314 0.351555)
(0.153895 -0.195294 0.134725 0.219785 0.0967687 0.352372)
(-0.157517 0.000192465 0.00051989 0.00141274 -1.33873e-05 0.423758)
(-0.157357 0.00223203 0.000513769 0.00191237 -0.000243673 0.423759)
(-0.157003 0.00555499 0.000498939 0.00344695 -0.000620111 0.423756)
(-0.15629 0.0120603 0.000468925 0.00689122 -0.00136308 0.423751)
(-0.155306 0.0253599 0.000457114 0.014162 -0.00289201 0.423738)
(-0.156479 0.0522342 0.000775516 0.0294236 -0.0060289 0.423686)
(-0.177612 0.10303 0.00345548 0.0642622 -0.0122527 0.423414)
(-0.316152 0.168184 0.0197784 0.165044 -0.0224489 0.422056)
(-0.683006 -0.0970451 0.0821529 0.37602 -0.00281205 0.418895)
(0.0620037 -6.43325e-05 0.0185301 0.0026253 -2.64797e-06 0.415538)
(0.061888 -0.000834485 0.0185336 0.00360426 0.000133284 0.41554)
(0.0616039 -0.00204532 0.0185537 0.00659643 0.000316508 0.415532)
(0.0609327 -0.00435799 0.0186115 0.0134531 0.000652377 0.415508)
(0.0593898 -0.00905652 0.0187569 0.0282791 0.00131142 0.415461)
(0.0559645 -0.019061 0.0191192 0.0593574 0.00268057 0.415363)
(0.0494834 -0.0423527 0.0201383 0.119128 0.00585542 0.415133)
(0.0444693 -0.0983407 0.0235524 0.205948 0.0143493 0.414533)
(0.0874029 -0.193599 0.036581 0.254755 0.0358888 0.411366)
(-0.0610347 0.00018012 -0.0816676 0.00134965 1.99994e-05 0.428948)
(-0.060915 0.00203108 -0.0816661 0.00187639 1.04988e-05 0.428944)
(-0.060594 0.00503562 -0.0816245 0.00334576 2.33263e-05 0.428944)
(-0.0599261 0.0108502 -0.0815259 0.00659197 4.94409e-05 0.42895)
(-0.0589204 0.0226342 -0.081327 0.013334 9.96796e-05 0.42896)
(-0.0592334 0.046263 -0.0809612 0.0271431 0.000159802 0.428985)
(-0.0734067 0.0910624 -0.0807105 0.0574912 1.97191e-06 0.429007)
(-0.171121 0.156097 -0.083103 0.14307 -0.00240281 0.428746)
(-0.49222 0.00237013 -0.0930638 0.369044 -0.0237038 0.424277)
(0.0165968 -8.5263e-05 -0.00240417 0.00274984 2.45008e-06 0.421099)
(0.0164792 -0.00087891 -0.00240823 0.00370175 -2.78614e-06 0.421093)
(0.01618 -0.00211778 -0.00241373 0.00668295 -1.06191e-05 0.421088)
(0.01546 -0.00446443 -0.00242528 0.0134764 -2.66044e-05 0.42108)
(0.0138191 -0.00914597 -0.00244938 0.0280126 -6.27372e-05 0.421068)
(0.010223 -0.0189101 -0.00250289 0.0581355 -0.000141879 0.421045)
(0.00334449 -0.0413911 -0.00267501 0.116103 -0.000386368 0.420944)
(-0.00233215 -0.0971583 -0.004072 0.203445 -0.00117541 0.420344)
(0.0237127 -0.20223 -0.0107957 0.261523 -0.00319727 0.417565)
(0.198274 -2.70948e-05 -0.114187 0.000541918 -9.14376e-05 0.113752)
(0.198274 -0.000103237 -0.114154 0.000737518 -0.000482485 0.113805)
(0.19828 -0.000275008 -0.114098 0.00150002 -0.00123657 0.113794)
(0.198334 -0.000819959 -0.113988 0.00324687 -0.00300143 0.113683)
(0.198415 -0.00170865 -0.114756 0.00676994 -0.00683395 0.11441)
(0.198714 -0.00358111 -0.114204 0.0152584 -0.016471 0.114818)
(0.199101 -0.0091093 -0.113249 0.0339334 -0.0379794 0.114375)
(0.198411 -0.0205157 -0.1184 0.0779787 -0.0804409 0.106543)
(0.190371 -0.033128 -0.146089 0.211843 -0.127122 0.0159521)
(0.144169 -1.86781e-05 -0.100683 0.000285682 -0.000130618 0.0991786)
(0.144006 9.62831e-05 -0.100644 0.000671167 -0.000581747 0.099434)
(0.143344 -0.00010741 -0.100234 0.00175656 -0.00145858 0.100115)
(0.143167 -0.0010669 -0.100117 0.00447155 -0.00335406 0.0998108)
(0.170761 -0.00194344 -0.0845849 0.0108178 -0.00556976 0.0844356)
(0.143889 -0.00361144 -0.101051 0.0190849 -0.0186682 0.101413)
(0.143695 -0.0132288 -0.100615 0.0458717 -0.0434699 0.0961586)
(0.170946 -0.0174679 -0.0888538 0.139122 -0.0392963 0.0733511)
(0.177513 -0.0304062 -0.0996748 0.316482 -0.0263829 0.0318746)
(0.194165 4.82956e-05 -0.0888667 0.000857318 0.000150222 0.0847854)
(0.19449 0.000604163 -0.0883393 0.00131826 0.000290138 0.0855787)
(0.19668 0.000665328 -0.0761341 0.00139118 -0.00105975 0.10593)
(0.195951 -0.00131222 -0.077183 0.00295183 -0.00342154 0.10326)
(0.192882 -0.00404614 -0.0706637 0.00970675 -0.00872991 0.101421)
(0.194373 -0.00419286 -0.0890095 0.0292161 -0.0121145 0.0836797)
(0.193913 -0.00934001 -0.0898445 0.0620534 -0.0277329 0.0796401)
(0.192226 -0.0271111 -0.0715373 0.100325 -0.0919995 0.0855034)
(0.190857 -0.0678381 -0.0965117 0.234208 -0.122062 -0.0158515)
(0.166165 -2.82188e-05 -0.104399 0.000481062 -0.00130101 0.128594)
(0.166336 -0.000146833 -0.104435 0.00173181 -0.00143072 0.127631)
(0.170514 -0.00148341 -0.111764 0.000623305 -0.00115403 0.130599)
(0.169884 -0.00129876 -0.112715 0.0028123 -0.0033399 0.13097)
(0.169734 -0.00241249 -0.112466 0.00655118 -0.00820452 0.131166)
(0.166639 -0.00597546 -0.102767 0.0178409 -0.0218304 0.129171)
(0.166758 -0.0157259 -0.102819 0.0379756 -0.0468859 0.127562)
(0.169239 -0.0351453 -0.115389 0.0873961 -0.0913642 0.120062)
(0.158965 -0.0532861 -0.142835 0.241216 -0.122338 0.0196657)
(0.13585 1.44397e-05 -0.12475 0.000533839 -6.12622e-05 0.153281)
(0.135624 0.000403713 -0.124931 0.000614137 -0.000620764 0.153423)
(0.135724 -7.92126e-06 -0.123842 0.00147374 -0.00149064 0.154095)
(0.137875 -0.00138481 -0.121518 0.00329661 -0.00346584 0.152987)
(0.138264 -0.00411822 -0.121107 0.00719173 -0.00809532 0.153093)
(0.137811 -0.00828419 -0.122414 0.0155862 -0.0194471 0.154368)
(0.138343 -0.0191769 -0.122005 0.0350871 -0.0444797 0.153726)
(0.135876 -0.0381091 -0.128147 0.0867564 -0.0910949 0.140072)
(0.133035 -0.0474315 -0.146085 0.240628 -0.120196 0.0465331)
(0.183644 -5.98144e-05 -0.0624571 0.000347697 -0.000117406 0.0922602)
(0.183531 -0.0001935 -0.0624606 0.00078511 -0.000694773 0.0923282)
(0.182619 -0.000618785 -0.0627911 0.00163418 -0.00165967 0.0939112)
(0.18273 -0.00180806 -0.0629426 0.0033601 -0.00371419 0.0942121)
(0.183162 -0.00417094 -0.0629437 0.00748402 -0.00874522 0.0943995)
(0.18338 -0.00972586 -0.0626215 0.016991 -0.0208161 0.0947763)
(0.183232 -0.0219029 -0.0631609 0.0379894 -0.0478559 0.0937582)
(0.179246 -0.0460161 -0.0703594 0.0898899 -0.0990137 0.0804804)
(0.11728 -0.0657971 -0.124629 0.243891 -0.133065 0.00219047)
(0.121698 -1.56599e-05 -0.0711367 0.000373799 -0.000184104 0.106417)
(0.121727 -0.000245717 -0.0712513 0.000856086 -0.000797107 0.106471)
(0.122167 -0.000770124 -0.071823 0.00150249 -0.00179965 0.106799)
(0.121287 -0.00183123 -0.0719086 0.00337827 -0.00412172 0.108132)
(0.121208 -0.00443947 -0.0712894 0.00768778 -0.00950895 0.108185)
(0.121459 -0.0103734 -0.0707188 0.0171418 -0.0224342 0.108479)
(0.121034 -0.0232742 -0.0707843 0.0388567 -0.0510312 0.106727)
(0.113918 -0.0424838 -0.0817063 0.0967447 -0.102919 0.088232)
(0.134935 -0.0521129 -0.120032 0.256664 -0.118555 -0.0312586)
(0.146935 -4.33237e-05 -0.151363 0.000272172 -0.000138202 0.104636)
(0.146934 -0.000293956 -0.151366 0.000772325 -0.000678771 0.104638)
(0.146916 -0.000699989 -0.151347 0.00157882 -0.00169314 0.104683)
(0.146357 -0.00176998 -0.151735 0.00337994 -0.00402435 0.105577)
(0.146446 -0.00436928 -0.151652 0.00748534 -0.00962094 0.105849)
(0.146987 -0.0100298 -0.151006 0.0163809 -0.0225912 0.106596)
(0.147278 -0.0221613 -0.151156 0.0361975 -0.0508286 0.105504)
(0.141494 -0.0422459 -0.16382 0.0907058 -0.100953 0.0844714)
(0.121174 -0.0351674 -0.218574 0.25133 -0.118971 -0.032855)
(0.16446 0.000115359 -0.0391244 0.000511519 -8.90331e-05 0.0387216)
(0.164482 -0.000215476 -0.0391067 0.000819939 -0.000712998 0.0387564)
(0.164463 -0.00071197 -0.0390915 0.00162455 -0.00183438 0.0388731)
(0.164494 -0.00178931 -0.0392362 0.00352897 -0.00439612 0.0392546)
(0.163255 -0.00467843 -0.0391359 0.00800931 -0.0102945 0.0404566)
(0.163128 -0.0110892 -0.0390464 0.0173502 -0.0237173 0.0412066)
(0.162456 -0.0237103 -0.0390884 0.0386971 -0.0529307 0.0391965)
(0.155356 -0.0505644 -0.051784 0.0954026 -0.101917 0.0172519)
(0.078368 -0.0517218 -0.175329 0.27322 -0.102711 -0.0820476)
(0.128855 -5.45894e-05 -0.186365 0.00052577 -4.19959e-05 0.0569529)
(0.12884 -0.00037819 -0.18637 0.000878281 -0.000759598 0.0569527)
(0.128874 -0.00093323 -0.186314 0.0017161 -0.00201709 0.0570418)
(0.128001 -0.000193399 -0.187182 0.00369442 -0.00482474 0.0572848)
(0.134732 -0.00492476 -0.180382 0.00797318 -0.0110786 0.0567093)
(0.13194 -0.012675 -0.182928 0.0175072 -0.0254903 0.057882)
(0.132853 -0.0255145 -0.183421 0.0380474 -0.0564879 0.0555422)
(0.12977 -0.0479758 -0.19415 0.0931459 -0.109988 0.0297252)
(0.135482 -0.0242244 -0.213973 0.260908 -0.107476 -0.0924342)
(0.262924 0.000245638 -0.0896244 0.000364645 7.90942e-05 -0.0731368)
(0.262941 -0.000193751 -0.0896091 0.000899687 -0.000696992 -0.073148)
(0.262936 -0.000866231 -0.0895844 0.00179882 -0.00213689 -0.072997)
(0.262979 -0.00234112 -0.0896238 0.00369327 -0.00517989 -0.0726092)
(0.262038 -0.00580666 -0.0904898 0.0081654 -0.0117738 -0.0709477)
(0.262436 -0.0125167 -0.0899853 0.017701 -0.027016 -0.0708787)
(0.261218 -0.0284269 -0.0915047 0.0389375 -0.058801 -0.0717098)
(0.251724 -0.057908 -0.107837 0.0942145 -0.11317 -0.0990884)
(0.169324 -0.0708714 -0.209438 0.285797 -0.099789 -0.223433)
(0.220608 -3.19472e-05 -0.144227 0.000550513 -0.000103929 0.0358444)
(0.22061 -0.000513726 -0.144195 0.000951818 -0.000856355 0.0358701)
(0.220639 -0.00135182 -0.144147 0.00185482 -0.00222136 0.0359537)
(0.220717 -0.00313229 -0.144017 0.00393668 -0.00512897 0.0361744)
(0.22084 -0.00708759 -0.143713 0.00858087 -0.0116811 0.0366307)
(0.220227 -0.0159092 -0.143886 0.0186583 -0.0265692 0.0377492)
(0.218645 -0.0346706 -0.145766 0.0410852 -0.0576058 0.0352881)
(0.204673 -0.0676541 -0.166173 0.103143 -0.110561 0.00420308)
(0.112798 -0.0504736 -0.279947 0.302519 -0.0762555 -0.125521)
(0.107174 0.000285683 -0.158809 0.000626189 -9.38652e-05 0.191552)
(0.107148 -0.000540957 -0.158658 0.000972874 -0.000835955 0.191514)
(0.107231 -0.00180677 -0.158578 0.00180632 -0.00215916 0.191578)
(0.107429 -0.00436966 -0.158421 0.00383102 -0.00489913 0.191699)
(0.1078 -0.00988209 -0.158166 0.00831913 -0.0108341 0.191944)