/*--------------------------------*- C++ -*----------------------------------*\
| =========                 |                                                 |
| \\      /  F ield         | foam-extend: Open Source CFD                    |
|  \\    /   O peration     | Version:     3.1                                |
|   \\  /    A nd           | Web:         http://www.extend-project.de       |
|    \\/     M anipulation  |                                                 |
\*---------------------------------------------------------------------------*/
FoamFile
{
    version     2.0;
    format      ascii;
    class       surfaceScalarField;
    location    "345600";
    object      meshPhi;
}
// * * * * * * * * * * * * * * * * * * * * * * * * * * * * * * * * * * * * * //

dimensions      [0 3 -1 0 0 0 0];

internalField   nonuniform List<scalar> 
63765
(
8.96865e-19
-6.06807e-19
1.13139e-17
-1.61949e-21
8.95106e-19
7.01894e-21
-6.05446e-19
1.13147e-17
-1.31604e-20
8.94708e-19
2.06498e-20
-6.05693e-19
1.13214e-17
-3.24838e-20
8.94208e-19
5.09685e-20
-6.06494e-19
1.1342e-17
-7.97223e-20
8.91979e-19
-6.05584e-19
1.13839e-17
-1.89103e-19
1.20845e-19
8.91597e-19
2.8505e-19
-6.06197e-19
1.14925e-17
-4.50303e-19
8.94219e-19
6.85143e-19
-6.09366e-19
1.17766e-17
-1.10738e-18
8.83719e-19
-5.84382e-19
1.24687e-17
-2.78155e-18
1.7266e-18
9.90449e-19
4.42006e-18
-7.27781e-19
1.49028e-17
-7.03254e-18
6.34546e-19
-9.43126e-19
2.65551e-21
1.18412e-17
-1.14536e-17
6.33424e-19
-4.5245e-21
-9.43339e-19
9.0304e-21
1.18432e-17
-1.14558e-17
6.33979e-19
-1.74068e-20
-9.44906e-19
2.74005e-20
1.1851e-17
-1.14675e-17
6.38083e-19
-9.51057e-19
6.1514e-20
1.18716e-17
-3.93371e-20
-1.14965e-17
6.38769e-19
-8.96002e-20
-9.54337e-19
1.38516e-19
1.1916e-17
-1.15609e-17
6.4403e-19
-2.04871e-19
-9.62789e-19
3.19569e-19
1.20225e-17
-1.17204e-17
6.67561e-19
-4.80487e-19
-9.90926e-19
7.49746e-19
1.2297e-17
-1.21193e-17
7.52526e-19
-1.0974e-18
1.81305e-18
1.29756e-17
-1.13761e-18
-1.31093e-17
1.11131e-18
-2.94414e-18
-1.39506e-18
4.48757e-18
1.48298e-17
-1.56612e-17
9.63493e-19
1.16729e-17
-9.84032e-22
-1.30483e-18
9.63429e-19
6.56648e-21
1.16742e-17
-1.26913e-20
-1.30521e-18
9.63383e-19
1.98166e-20
1.16815e-17
-3.2779e-20
-1.30537e-18
9.6531e-19
5.15204e-20
1.16997e-17
-8.00183e-20
-1.30651e-18
9.6675e-19
1.17413e-17
-1.88131e-19
-1.31279e-18
1.19598e-19
9.70229e-19
2.83484e-19
1.18509e-17
-4.50831e-19
-1.3163e-18
9.76571e-19
6.83362e-19
1.21342e-17
-1.1107e-18
-1.32621e-18
1.2827e-17
-2.79828e-18
-1.34439e-18
9.56177e-19
1.73e-18
4.4537e-18
1.53343e-17
-7.15245e-18
-1.4393e-18
1.12552e-18
1.02785e-18
2.56104e-21
1.20174e-17
-1.10531e-18
-1.18968e-17
1.02791e-18
-5.46841e-21
1.0038e-20
1.20172e-17
-1.10485e-18
-1.18995e-17
1.02941e-18
-1.622e-20
2.6774e-20
1.2023e-17
-1.10635e-18
-1.19109e-17
1.03176e-18
6.12875e-20
1.20404e-17
-1.10937e-18
-4.09598e-20
-1.19363e-17
1.03591e-18
-9.00732e-20
1.42271e-19
1.20815e-17
-1.11436e-18
-1.20053e-17
1.04539e-18
-2.09499e-19
3.26179e-19
1.21874e-17
-1.125e-18
-1.21662e-17
1.07725e-18
-4.87967e-19
7.63119e-19
1.24643e-17
-1.15961e-18
-1.25755e-17
1.17996e-18
1.85125e-18
1.31414e-17
-1.26558e-18
-1.15678e-18
-1.35968e-17
1.48756e-18
-3.00317e-18
4.54956e-18
1.52299e-17
-1.59961e-18
-1.62602e-17
1.18676e-17
-2.12532e-21
-1.6729e-18
1.05435e-18
7.02583e-21
1.18681e-17
-1.26502e-20
-1.67303e-18
1.05368e-18
2.02617e-20
1.18764e-17
-3.38951e-20
-1.67396e-18
1.05459e-18
5.10121e-20
1.18929e-17
-8.05402e-20
-1.67479e-18
1.05431e-18
1.19353e-17
-1.89617e-19
-1.67823e-18
1.2182e-19
1.05819e-18
2.87217e-19
1.20437e-17
-4.5388e-19
-1.68481e-18
1.06137e-18
6.84802e-19
1.23286e-17
-1.10505e-18
-1.69821e-18
1.06964e-18
1.08405e-18
1.30384e-17
-2.77695e-18
-1.70531e-18
1.71643e-18
1.3609e-18
4.38949e-18
1.55885e-17
-7.06687e-18
-1.88766e-18
2.78944e-21
1.24056e-17
-1.46026e-18
1.29152e-18
-1.2206e-17
-5.74807e-21
1.12412e-20
1.24074e-17
-1.46056e-18
1.29116e-18
-1.22095e-17
-1.85702e-20
2.662e-20
1.24161e-17
-1.46242e-18
1.29359e-18
-1.2221e-17
6.44527e-20
1.24316e-17
-1.46678e-18
-4.19128e-20
1.2966e-18
-1.22486e-17
-9.31545e-20
1.44416e-19
1.2474e-17
-1.47353e-18
1.30238e-18
-1.23158e-17
-2.14477e-19
3.32953e-19
1.25795e-17
-1.48872e-18
1.31509e-18
-1.24783e-17
-4.97359e-19
7.71418e-19
1.28616e-17
-1.53194e-18
1.35489e-18
-1.28906e-17
1.85784e-18
1.35564e-17
-1.65881e-18
1.46915e-18
-1.16776e-18
-1.39189e-17
-2.9881e-18
4.46243e-18
1.56605e-17
-2.00334e-18
1.82132e-18
-1.65716e-17
2.34125e-18
1.24871e-17
-2.19112e-21
-2.56305e-18
2.3413e-18
8.20682e-21
1.24903e-17
-1.54458e-20
-2.56158e-18
2.34214e-18
2.24069e-20
1.24977e-17
-3.6299e-20
-2.56296e-18
2.3436e-18
5.40287e-20
1.25188e-17
-8.69172e-20
-2.56503e-18
2.34801e-18
1.25624e-17
-2.03417e-19
-2.57262e-18
1.29243e-19
2.35721e-18
3.02586e-19
1.26765e-17
-4.78681e-19
-2.58163e-18
2.37552e-18
7.1987e-19
1.29687e-17
-1.16848e-18
-2.60584e-18
1.3655e-17
-2.9175e-18
-2.69001e-18
2.38705e-18
1.8179e-18
4.62018e-18
1.61867e-17
-7.35913e-18
-2.74001e-18
2.42742e-18
1.50543e-18
2.96937e-21
1.29171e-17
-1.65583e-18
-1.26825e-17
1.50503e-18
-4.87434e-21
1.1823e-20
1.29179e-17
-1.65559e-18
-1.26876e-17
1.50637e-18
-1.90914e-20
3.08952e-20
1.29244e-17
-1.65684e-18
-1.26987e-17
1.51263e-18
6.91645e-20
1.29365e-17
-1.65809e-18
-4.42014e-20
-1.27278e-17
1.51968e-18
-1.00669e-19
1.54668e-19
1.2981e-17
-1.6652e-18
-1.27983e-17
1.53485e-18
-2.23688e-19
3.46772e-19
1.30906e-17
-1.68274e-18
-1.29666e-17
1.58065e-18
-5.16514e-19
7.96181e-19
1.33811e-17
-1.73208e-18
-1.3388e-17
1.70913e-18
1.9069e-18
1.40801e-17
-1.86778e-18
-1.20009e-18
-1.44384e-17
2.04913e-18
-3.04924e-18
4.57639e-18
1.61315e-17
-2.23323e-18
-1.70444e-17
1.34604e-17
-4.44284e-21
-1.52047e-19
1.89408e-18
1.05744e-20
1.34613e-17
-1.74218e-20
-1.50334e-19
1.89207e-18
2.79562e-20
1.34703e-17
-4.39267e-20
-1.50873e-19
1.89318e-18
6.65547e-20
1.3492e-17
-1.05092e-19
-1.51993e-19
1.89354e-18
1.35449e-17
-2.42487e-19
-1.55428e-19
1.56869e-19
1.89533e-18
3.62303e-19
1.36701e-17
-5.66789e-19
-1.60332e-19
1.90501e-18
8.49924e-19
1.39922e-17
-1.35422e-18
-1.67985e-19
1.9286e-18
2.00784e-18
1.47607e-17
-3.32392e-18
-1.58164e-19
2.0761e-18
2.47063e-18
5.17031e-18
1.72675e-17
-7.8849e-18
-1.09437e-18
3.01951e-21
1.32587e-17
-1.89649e-18
1.82503e-18
-1.30743e-17
-5.8456e-21
1.30043e-20
1.32578e-17
-1.89675e-18
1.82494e-18
-1.30775e-17
-1.94386e-20
3.05189e-20
1.32665e-17
-1.8973e-18
1.82566e-18
-1.30898e-17
-4.64904e-20
7.09614e-20
1.32897e-17
-1.89894e-18
1.82381e-18
-1.31216e-17
-1.04055e-19
1.60234e-19
1.33397e-17
-1.90465e-18
1.8302e-18
-1.32008e-17
-2.34675e-19
3.55456e-19
1.34576e-17
-1.92016e-18
1.84716e-18
-1.33763e-17
-5.30534e-19
8.07681e-19
1.37598e-17
-1.96535e-18
1.89802e-18
-1.38178e-17
1.88496e-18
1.44757e-17
-2.11098e-18
2.04685e-18
-1.20317e-18
-1.48748e-17
-2.9739e-18
4.46346e-18
1.6468e-17
-2.49615e-18
2.4355e-18
-1.74551e-17
8.91159e-19
1.17337e-17
-3.06613e-21
-2.5285e-18
8.91154e-19
7.78774e-21
1.17372e-17
-1.51473e-20
-2.52791e-18
8.91951e-19
2.22141e-20
1.17432e-17
-3.56969e-20
-2.52858e-18
8.93577e-19
5.32258e-20
1.17632e-17
-8.60397e-20
-2.53222e-18
8.98672e-19
1.18015e-17
-1.94905e-19
-2.54392e-18
1.25057e-19
9.0784e-19
2.91995e-19
1.19109e-17
-4.59196e-19
-2.5547e-18
9.23258e-19
6.90775e-19
1.21959e-17
-1.12012e-18
-2.5888e-18
1.28537e-17
-2.76989e-18
-2.7302e-18
9.34898e-19
1.74135e-18
4.38035e-18
1.53788e-17
-7.13138e-18
-2.25268e-18
8.27841e-19
1.88849e-18
2.85737e-21
1.24084e-17
-2.04936e-18
-1.23214e-17
1.88863e-18
-6.51546e-21
1.32297e-20
1.24081e-17
-2.04944e-18
-1.23253e-17
1.89027e-18
-1.92952e-20
3.15912e-20
1.2415e-17
-2.05041e-18
-1.23383e-17
1.89301e-18
-4.55978e-20
6.94411e-20
1.24342e-17
-2.05417e-18
-1.23674e-17
1.89956e-18
-1.01738e-19
1.55554e-19
1.24789e-17
-2.06334e-18
-1.24375e-17
1.91605e-18
-2.24845e-19
3.47179e-19
1.25878e-17
-2.08532e-18
-1.2604e-17
1.962e-18
-5.14322e-19
7.8904e-19
1.28778e-17
-2.1408e-18
-1.30207e-17
2.0912e-18
1.86751e-18
1.3565e-17
-2.27585e-18
-1.18167e-18
-1.40606e-17
2.40301e-18
-2.92463e-18
4.34878e-18
1.55415e-17
-2.5572e-18
-1.66229e-17
1.23601e-17
-3.65702e-21
-3.44594e-18
2.70072e-18
1.0377e-20
1.23618e-17
-1.72218e-20
-3.44562e-18
2.69762e-18
2.7726e-20
1.23712e-17
-4.34169e-20
-3.44694e-18
2.69863e-18
6.49943e-20
1.23915e-17
-1.01061e-19
-3.44975e-18
2.70156e-18
1.4895e-19
1.24464e-17
-2.30326e-19
-3.45614e-18
2.71738e-18
1.25621e-17
-5.37211e-19
-3.49529e-18
3.4459e-19
2.72299e-18
8.08898e-19
1.28756e-17
-1.27856e-18
-3.54802e-18
2.76203e-18
2.9353e-18
1.3679e-17
-3.15116e-18
-3.61744e-18
1.96582e-18
3.35333e-18
4.97058e-18
1.64493e-17
-7.95081e-18
-3.84615e-18
3.28728e-21
1.28568e-17
-2.51324e-18
2.31779e-18
-1.26786e-17
-6.88512e-21
1.39239e-20
1.28571e-17
-2.5142e-18
2.31733e-18
-1.2682e-17
-2.1305e-20
3.33282e-20
1.28655e-17
-2.51566e-18
2.31961e-18
-1.26959e-17
-4.96399e-20
7.4924e-20
1.28853e-17
-2.52e-18
2.32406e-18
-1.27282e-17
-1.07891e-19
1.64752e-19
1.29349e-17
-2.53365e-18
2.33496e-18
-1.28039e-17
-2.42566e-19
3.71171e-19
1.30536e-17
-2.56261e-18
2.36171e-18
-1.29853e-17
-5.51721e-19
8.38301e-19
1.3366e-17
-2.63628e-18
2.42651e-18
-1.34277e-17
1.98595e-18
1.41127e-17
-2.81799e-18
-1.26361e-18
2.5838e-18
-1.45261e-17
-3.1434e-18
4.7589e-18
1.61909e-17
-3.17158e-18
2.89796e-18
-1.72502e-17
3.39094e-18
1.29172e-17
-5.60743e-21
-2.83844e-18
3.3967e-18
1.15306e-20
1.29203e-17
-1.91449e-20
-2.837e-18
3.39807e-18
3.16675e-20
1.29316e-17
-5.06125e-20
-2.83459e-18
3.40153e-18
7.45997e-20
1.29567e-17
-1.17088e-19
-2.83598e-18
3.40403e-18
1.70993e-19
1.30155e-17
-2.68453e-19
-2.83878e-18
3.41842e-18
1.31476e-17
-6.19195e-19
-2.83596e-18
3.98577e-19
3.46284e-18
9.29514e-19
1.34885e-17
-1.48387e-18
-2.87826e-18
1.42357e-17
-3.62323e-18
-2.97581e-18
3.44117e-18
2.30404e-18
5.69232e-18
1.67879e-17
-8.84502e-18
-3.24525e-18
3.50493e-18
2.84819e-18
2.92092e-21
1.29006e-17
-2.94243e-18
-1.28142e-17
2.84852e-18
-7.96676e-21
1.37349e-20
1.29045e-17
-2.94444e-18
-1.28181e-17
2.85111e-18
-2.39199e-20
3.73846e-20
1.29132e-17
-2.94832e-18
-1.28329e-17
2.85722e-18
-5.23891e-20
7.91216e-20
1.29342e-17
-2.95355e-18
-1.2867e-17
2.86997e-18
-1.14475e-19
1.70936e-19
1.29891e-17
-2.96687e-18
-1.29483e-17
2.90127e-18
-2.52152e-19
3.84587e-19
1.31175e-17
-2.9986e-18
-1.31447e-17
2.97697e-18
-5.68847e-19
8.66717e-19
1.34399e-17
-3.0755e-18
-1.36119e-17
3.17049e-18
2.04118e-18
1.419e-17
-3.25655e-18
-1.30537e-18
-1.47565e-17
3.44506e-18
-3.20414e-18
4.78363e-18
1.61804e-17
-3.52296e-18
-1.74149e-17
1.28021e-17
-5.04639e-21
-3.40054e-18
3.09585e-18
1.32198e-20
1.2804e-17
-2.07123e-20
-3.40114e-18
3.0916e-18
1.28109e-17
-5.24895e-20
-3.40965e-18
3.20631e-20
3.08168e-18
7.84054e-20
1.28333e-17
-1.20922e-19
-3.41138e-18
3.07913e-18
1.8064e-19
1.28879e-17
-2.75468e-19
-3.41824e-18
3.08787e-18
4.15347e-19
1.30293e-17
-6.42347e-19
-3.43393e-18
3.12178e-18
9.76396e-19
1.3387e-17
-1.52272e-18
-3.44995e-18
3.17487e-18
3.36909e-18
2.33938e-18
1.42916e-17
-3.7155e-18
-3.41764e-18
3.76257e-18
5.78766e-18
1.70321e-17
-9.0023e-18
-4.10431e-18
4.46715e-21
1.26232e-17
-2.5779e-18
2.65119e-18
-1.2736e-17
-8.07736e-21
1.38835e-20
1.26257e-17
-2.57847e-18
2.65094e-18
-1.27387e-17
-2.17767e-20
3.37924e-20
1.26352e-17
-2.57959e-18
2.6542e-18
-1.27563e-17
-4.95374e-20
7.41556e-20
1.26596e-17
-2.58589e-18
2.65936e-18
-1.27911e-17
-1.10158e-19
1.63982e-19
1.27158e-17
-2.60017e-18
2.6729e-18
-1.28732e-17
-2.45279e-19
3.71926e-19
1.28485e-17
-2.63841e-18
2.70619e-18
-1.30667e-17
-5.6536e-19
8.59489e-19
1.31923e-17
-2.72272e-18
2.78442e-18
-1.35503e-17
2.03175e-18
1.40288e-17
-2.93119e-18
-1.3075e-18
2.9738e-18
-1.47318e-17
-3.21957e-18
4.9677e-18
1.62222e-17
-3.44816e-18
3.3591e-18
-1.75971e-17
2.83272e-18
1.33837e-17
-5.5444e-21
-2.26271e-18
2.83304e-18
1.41151e-20
1.3387e-17
-2.50017e-20
-2.26563e-18
2.83227e-18
1.33958e-17
-6.08786e-20
-2.2626e-18
3.83524e-20
2.83415e-18
9.1955e-20
1.34265e-17
-1.40949e-19
-2.26342e-18
2.83795e-18
2.06212e-19
1.34883e-17
-3.13169e-19
-2.26611e-18
2.84483e-18
4.62138e-19
1.36031e-17
-7.13845e-19
-2.27459e-18
2.8067e-18
1.06849e-18
1.38669e-17
-1.70147e-18
-2.67651e-18
1.47335e-17
-4.21256e-18
-2.36906e-18
2.52841e-18
2.67993e-18
6.65877e-18
1.7853e-17
-1.03545e-17
-3.46696e-18
3.63948e-18
2.54169e-18
2.82416e-21
1.32612e-17
-2.64093e-18
-1.31741e-17
2.54202e-18
-9.96358e-21
1.51125e-20
1.32657e-17
-2.64275e-18
-1.31784e-17
2.54581e-18
-2.44486e-20
3.792e-20
1.32787e-17
-2.64564e-18
-1.32002e-17
2.55157e-18
-5.74572e-20
8.63141e-20
1.33048e-17
-2.652e-18
-1.32399e-17
2.56719e-18
-1.26517e-19
1.85563e-19
1.33652e-17
-2.66966e-18
-1.33257e-17
2.61493e-18
-2.71952e-19
4.07826e-19
1.35103e-17
-2.73476e-18
-1.35245e-17
2.72065e-18
-6.23791e-19
9.65036e-19
1.38812e-17
-2.89075e-18
-1.40322e-17
2.93409e-18
2.3165e-18
1.47576e-17
-3.1137e-18
-1.48817e-18
-1.53192e-17
3.47655e-18
-3.65162e-18
5.64364e-18
1.68372e-17
-3.62328e-18
-1.83703e-17
1.32948e-17
-7.41851e-21
-3.52266e-18
2.55976e-18
1.58508e-20
1.32979e-17
-2.79921e-20
-3.52316e-18
2.55728e-18
4.43458e-20
1.33158e-17
-7.10894e-20
-3.52822e-18
2.57225e-18
1.07021e-19
1.33481e-17
-1.62102e-19
-3.53413e-18
2.57941e-18
2.43977e-19
1.34295e-17
-3.71894e-19
-3.54437e-18
2.58389e-18
5.59897e-19
1.36843e-17
-8.64238e-19
-3.53541e-18
2.59218e-18
-2.86062e-18
1.44962e-17
-3.19267e-18
1.52682e-17
1.56994e-17
1.6521e-17
-3.65548e-18
-3.31543e-18
-3.78746e-18
1.41965e-18
2.74695e-19
1.66853e-18
2.64038e-19
-9.85833e-19
-3.31129e-18
-9.09131e-19
3.82964e-18
3.58373e-18
3.80841e-18
3.73957e-18
3.13012e-18
1.51403e-17
-4.41393e-18
-3.57421e-18
3.78126e-18
6.98481e-18
1.8657e-17
-1.106e-17
-4.29403e-18
3.05124e-21
1.38369e-17
-2.81558e-18
2.6681e-18
-1.37094e-17
-9.61254e-21
1.6786e-20
1.38416e-17
-2.81682e-18
2.6681e-18
-1.37155e-17
-2.55462e-20
3.82023e-20
1.38556e-17
-2.82152e-18
2.6707e-18
-1.37324e-17
-6.19374e-20
9.12246e-20
1.38883e-17
-2.83032e-18
2.67871e-18
-1.37793e-17
-1.36553e-19
2.05676e-19
1.39634e-17
-2.85047e-18
2.69738e-18
-1.38879e-17
-3.14243e-19
4.66184e-19
1.41254e-17
-2.90324e-18
2.76801e-18
-1.41379e-17
-6.45538e-19
8.70361e-19
1.44794e-17
-3.1169e-18
2.94157e-18
-1.52355e-18
2.38266e-18
1.55282e-17
-3.34218e-18
3.1715e-18
-1.61038e-17
-3.78407e-18
6.01457e-18
1.76182e-17
-3.77146e-18
3.66301e-18
-1.93856e-17
3.96999e-18
1.56263e-17
-8.77308e-21
-4.08106e-18
3.97119e-18
2.20045e-20
1.56306e-17
-4.10088e-20
-4.08021e-18
3.97263e-18
6.3566e-20
1.56472e-17
-9.57967e-20
-4.08287e-18
3.97837e-18
1.41889e-19
1.56899e-17
-2.1461e-19
-4.08921e-18
3.99505e-18
3.17171e-19
1.57938e-17
-4.81067e-19
-4.11136e-18
3.95991e-18
7.13694e-19
1.60295e-17
-1.1065e-18
-4.09434e-18
1.63315e-17
-2.46902e-18
-4.14671e-18
1.71631e-18
3.76147e-18
1.76198e-17
-5.83633e-18
-4.42749e-18
3.81538e-18
9.13497e-18
2.18717e-17
-1.44235e-17
-4.76493e-18
4.42141e-18
2.84052e-18
3.68504e-21
1.54933e-17
-2.70496e-18
-1.55944e-17
2.84285e-18
-1.33685e-20
2.16267e-20
1.54973e-17
-2.70652e-18
-1.56016e-17
2.84636e-18
-3.25371e-20
5.09429e-20
1.55127e-17
-2.71013e-18
-1.56262e-17
2.85492e-18
-7.51511e-20
1.14187e-19
1.55539e-17
-2.71879e-18
-1.56858e-17
2.87381e-18
-1.68041e-19
2.5066e-19
1.56445e-17
-2.7328e-18
-1.58193e-17
2.89906e-18
-3.71806e-19
5.52473e-19
1.58564e-17
-2.75262e-18
-1.61204e-17
2.98341e-18
-1.69024e-17
-8.37038e-19
1.26611e-18
1.63959e-17
-2.81179e-18
3.28391e-18
-1.86411e-17
-1.95446e-18
2.99228e-18
1.76126e-17
-3.10539e-18
3.82096e-18
-2.26596e-17
-4.689e-18
7.54392e-18
2.02932e-17
-3.77646e-18
1.89749e-17
-1.47479e-20
-2.09614e-18
2.25197e-18
3.41898e-20
1.89829e-17
-6.15015e-20
-2.09651e-18
2.24436e-18
9.34242e-20
1.90087e-17
-1.44694e-19
-2.09947e-18
2.24618e-18
2.12702e-19
1.90624e-17
-3.13254e-19
-2.10684e-18
2.25268e-18
4.61804e-19
1.91884e-17
-6.81677e-19
-2.12332e-18
2.27023e-18
1.00806e-18
1.94549e-17
-1.49991e-18
-2.15726e-18
2.27949e-18
2.4549e-18
2.25079e-18
2.01157e-17
-3.42355e-18
-2.18216e-18
2.58168e-18
5.21069e-18
2.18735e-17
-8.03006e-18
-2.2292e-18
3.15553e-18
1.26249e-17
2.71914e-17
-1.94048e-17
-2.99402e-18
2.67698e-18
-1.91605e-17
4.98257e-21
1.93969e-17
-2.72149e-18
2.67703e-18
-1.91733e-17
-1.55891e-20
2.94668e-20
1.94013e-17
-2.72196e-18
2.68095e-18
-1.92072e-17
-4.67831e-20
7.04032e-20
1.94262e-17
-2.72548e-18
2.68895e-18
-1.92855e-17
-1.02809e-19
1.53531e-19
1.94812e-17
-2.7345e-18
2.70377e-18
-1.94596e-17
-2.2431e-19
3.31374e-19
1.96083e-17
-2.75188e-18
2.73437e-18
-1.98563e-17
-4.92723e-19
7.34174e-19
1.98998e-17
-2.79537e-18
2.82501e-18
-2.07992e-17
-1.1075e-18
1.68253e-18
2.05836e-17
-2.91753e-18
3.11062e-18
-2.30938e-17
-2.57852e-18
4.00858e-18
2.21738e-17
-3.2268e-18
3.78979e-18
-2.8345e-17
-6.31307e-18
1.01904e-17
2.52869e-17
-3.75663e-18
3.85764e-18
2.41488e-17
-2.15458e-20
-4.0891e-18
3.86258e-18
5.24883e-20
2.41659e-17
-8.70572e-20
-4.06395e-18
3.8668e-18
1.36057e-19
2.42026e-17
-2.04517e-19
-4.07117e-18
3.8771e-18
3.02825e-19
2.42882e-17
-4.51386e-19
-4.08293e-18
3.89901e-18
6.67182e-19
2.44704e-17
-9.88955e-19
-4.10567e-18
3.9425e-18
1.46505e-18
2.4888e-17
-2.18487e-18
-4.14702e-18
4.01908e-18
3.25995e-18
2.58698e-17
-4.91004e-18
-4.22157e-18
4.18512e-18
7.4492e-18
2.83827e-17
-1.14766e-17
-4.4089e-18
4.45102e-18
1.78806e-17
3.57254e-17
-2.74622e-17
-5.09169e-18
2.5666e-18
-2.44593e-17
1.13197e-20
2.45183e-17
-2.36818e-18
2.56758e-18
-2.4477e-17
-2.50745e-20
4.17163e-20
2.45273e-17
-2.36567e-18
2.5704e-18
-2.45283e-17
-6.48003e-20
1.005e-19
2.45607e-17
-2.36795e-18
2.57865e-18
-2.46416e-17
-1.48894e-19
2.20105e-19
2.46431e-17
-2.377e-18
2.59978e-18
-2.48979e-17
-3.23211e-19
4.7739e-19
2.48261e-17
-2.39855e-18
2.65203e-18
-2.54885e-17
-7.08699e-19
1.06231e-18
2.52414e-17
-2.45218e-18
2.78692e-18
-2.68598e-17
-1.58731e-18
2.4072e-18
2.62076e-17
-2.58807e-18
3.11603e-18
-3.01282e-17
-3.69213e-18
5.78502e-18
2.84013e-17
-2.93202e-18
3.5691e-18
-3.72547e-17
-9.2002e-18
1.53354e-17
3.23729e-17
-3.57969e-18
2.19973e-18
2.98292e-17
-2.44762e-20
-5.7008e-18
2.18188e-18
6.47425e-20
2.98341e-17
-1.17062e-19
-5.70825e-18
2.18886e-18
1.85014e-19
2.98798e-17
-2.78313e-19
-5.71691e-18
2.19768e-18
4.13828e-19
2.99988e-17
-6.13025e-19
-5.73359e-18
2.21392e-18
9.01354e-19
3.02567e-17
-1.33348e-18
-5.76487e-18
2.24255e-18
1.96828e-18
3.08417e-17
-2.92334e-18
-5.83178e-18
2.28607e-18
4.34685e-18
3.22186e-17
-6.53329e-18
-5.96873e-18
2.37465e-18
9.90894e-18
3.59042e-17
-1.53426e-17
-6.32641e-18
4.97489e-18
2.4162e-17
4.70841e-17
-3.81857e-17
-7.58288e-18
2.86118e-18
-3.18492e-17
1.48161e-20
3.27728e-17
-3.29867e-18
2.86067e-18
-3.18678e-17
-3.41354e-20
6.40148e-20
3.27766e-17
-3.29871e-18
2.86348e-18
-3.19382e-17
-9.76179e-20
1.51525e-19
3.28256e-17
-3.30199e-18
2.87377e-18
-3.21014e-17
-2.27817e-19
3.30141e-19
3.29505e-17
-3.3167e-18
2.90052e-18
-3.24791e-17
-4.91261e-19
7.23816e-19
3.32186e-17
-3.35023e-18
2.96491e-18
-3.33332e-17
-1.06836e-18
1.59369e-18
3.38328e-17
-3.43281e-18
3.12775e-18
-3.5322e-17
-2.38075e-18
3.61185e-18
3.5248e-17
-3.63287e-18
3.53771e-18
-4.00994e-17
-5.54965e-18
8.72576e-18
3.84141e-17
-4.07868e-18
4.24537e-18
-5.06902e-17
-1.395e-17
2.24725e-17
4.46035e-17
-4.77019e-18
7.72025e-18
4.38984e-17
-3.95298e-20
-5.91421e-18
7.64875e-18
1.14212e-19
4.39291e-17
-2.06457e-19
-5.85208e-18
7.66403e-18
3.27905e-19
4.4009e-17
-4.94971e-19
-5.86654e-18
7.68596e-18
7.32299e-19
4.42038e-17
-1.07992e-18
-5.88665e-18
7.73042e-18
1.57933e-18
4.46338e-17
-2.32444e-18
-5.92596e-18
7.82072e-18
3.4179e-18
4.55857e-17
-5.04538e-18
-6.00026e-18
8.02085e-18
7.46793e-18
4.78105e-17
-1.11864e-17
-6.16515e-18
8.59498e-18
1.69369e-17
5.36401e-17
-2.60758e-17
-6.65566e-18
9.19193e-18
4.01223e-17
6.68822e-17
-5.71088e-17
-7.88493e-18
3.43174e-18
-4.37922e-17
2.22372e-20
4.46849e-17
-3.0832e-18
3.42956e-18
-4.38316e-17
-5.39646e-20
1.02776e-19
4.47009e-17
-3.08305e-18
3.433e-18
-4.39428e-17
-1.6128e-19
2.42173e-19
4.47838e-17
-3.08546e-18
3.44815e-18
-4.42023e-17
-3.54373e-19
5.28002e-19
4.49601e-17
-3.09886e-18
3.48737e-18
-4.47797e-17
-7.67744e-19
1.13376e-18
4.53664e-17
-3.13251e-18
3.58075e-18
-4.60747e-17
-1.66999e-18
2.47227e-18
4.62826e-17
-3.21734e-18
3.80058e-18
-4.90462e-17
-3.67932e-18
5.5595e-18
4.83129e-17
-3.39811e-18
4.26217e-18
-5.59155e-17
-8.54808e-18
1.34313e-17
5.26379e-17
-3.80032e-18
4.80482e-18
-6.95165e-17
-2.13722e-17
3.31091e-17
6.07219e-17
-4.44087e-18
1.18436e-18
5.23181e-17
-6.21459e-20
2.88083e-18
1.1971e-18
1.58405e-19
5.23438e-17
-2.83222e-19
2.87984e-18
1.20295e-18
4.47924e-19
5.24605e-17
-6.86679e-19
2.88e-18
1.21452e-18
1.00899e-18
5.27059e-17
-1.4801e-18
2.88184e-18
1.22631e-18
2.16108e-18
5.32791e-17
-3.16909e-18
2.89413e-18
1.24137e-18
4.64327e-18
5.45256e-17
-6.82925e-18
2.92181e-18
1.25899e-18
1.00906e-17
5.7454e-17
-1.50714e-17
3.00466e-18
1.32997e-18
2.2781e-17
6.50973e-17
-3.50476e-17
3.25304e-18
3.56798e-18
5.3858e-17
8.19705e-17
-7.46072e-17
2.47528e-19
1.95663e-18
-5.17943e-17
4.01333e-20
5.36113e-17
-2.24522e-18
1.95619e-18
-5.18403e-17
-7.97123e-20
1.35394e-19
5.36447e-17
-2.2475e-18
1.95904e-18
-5.1985e-17
-2.14461e-19
3.2265e-19
5.37428e-17
-2.25009e-18
1.96691e-18
-5.23152e-17
-4.8108e-19
6.97133e-19
5.39799e-17
-2.25767e-18
1.98797e-18
-5.30785e-17
-1.02207e-18
1.49632e-18
5.45194e-17
-2.27721e-18
2.01879e-18
-5.47514e-17
-2.18758e-18
3.23291e-18
5.57085e-17
-2.30854e-18
2.12088e-18
-5.85599e-17
-4.79461e-18
7.23525e-18
5.83712e-17
-2.43231e-18
2.43118e-18
-6.72018e-17
-1.11671e-17
1.76439e-17
6.36452e-17
-2.7759e-18
3.40506e-18
-8.36197e-17
-2.84062e-17
4.43468e-17
7.10721e-17
-2.91546e-18
6.3455e-19
4.87146e-17
-6.28563e-20
-3.90752e-18
6.29668e-19
1.53274e-19
4.87434e-17
-2.73787e-19
-3.91684e-18
6.32419e-19
4.31169e-19
4.88543e-17
-6.4799e-19
-3.92294e-18
6.37276e-19
9.46764e-19
4.91137e-17
-1.39531e-18
-3.93419e-18
6.43223e-19
2.03354e-18
4.9673e-17
-2.97056e-18
-3.95683e-18
6.6055e-19
4.35479e-18
5.09316e-17
-6.41089e-18
-4.01567e-18
7.07566e-19
9.47293e-18
5.39078e-17
-1.41597e-17
-4.16788e-18
8.53443e-19
2.14393e-17
6.20172e-17
-3.31085e-17
-4.63619e-18
2.73107e-18
5.17656e-17
8.47518e-17
-7.7e-17
-4.31055e-18
7.62044e-19
-4.9758e-17
3.70628e-20
4.99492e-17
5.44841e-20
7.61563e-19
-4.98051e-17
-7.94837e-20
1.40021e-19
4.998e-17
5.13913e-20
7.61826e-19
-4.99479e-17
-2.23281e-19
3.35311e-19
5.00766e-17
5.1222e-20
7.65907e-19
-5.0296e-17
-4.89146e-19
7.19918e-19
5.03187e-17
4.76648e-20
7.73137e-19
-5.10553e-17
-1.05592e-18
1.54043e-18
5.08509e-17
4.486e-20
7.92752e-19
-5.27532e-17
-2.26309e-18
3.33949e-18
5.20181e-17
4.06479e-20
8.34358e-19
-5.66993e-17
-4.97144e-18
7.5272e-18
5.46417e-17
4.92861e-20
9.58156e-19
-6.6085e-17
-1.16127e-17
1.8375e-17
6.02526e-17
1.07299e-19
1.34568e-18
-8.67834e-17
-2.98357e-17
4.94816e-17
6.97714e-17
-2.85493e-19
-8.23413e-19
4.92577e-17
-7.10637e-20
2.65103e-18
-8.00372e-19
1.71408e-19
4.92849e-17
-3.00375e-19
2.65159e-18
-7.99843e-19
4.69736e-19
4.93956e-17
-7.03059e-19
2.65359e-18
-8.01109e-19
1.03769e-18
4.96548e-17
-1.52316e-18
2.65768e-18
-7.98545e-19
2.21588e-18
5.02012e-17
-3.2257e-18
2.66759e-18
-8.03816e-19
4.70146e-18
5.14208e-17
-6.88612e-18
2.69139e-18
-8.0437e-19
1.01301e-17
5.42373e-17
-1.50643e-17
2.74614e-18
-7.94847e-19
2.27056e-17
6.15986e-17
-3.49209e-17
2.91372e-18
2.81625e-19
5.44352e-17
8.19096e-17
-7.8749e-17
1.39852e-18
1.31949e-18
-4.93173e-17
2.63292e-20
4.94999e-17
-5.39363e-19
1.32125e-18
-4.93681e-17
-8.05255e-20
1.3834e-19
4.95238e-17
-5.40875e-19
1.32327e-18
-4.95151e-17
-2.13398e-19
3.23908e-19
4.96228e-17
-5.42464e-19
1.32917e-18
-4.98546e-17
-4.6903e-19
6.86143e-19
4.98611e-17
-5.41109e-19
1.34365e-18
-5.06143e-17
-9.96583e-19
1.4486e-18
5.04031e-17
-5.42871e-19
1.37191e-18
-5.22897e-17
-2.11559e-18
3.11243e-18
5.15842e-17
-5.50198e-19
1.43102e-18
-5.6086e-17
-4.5958e-18
6.91653e-18
5.42022e-17
-5.69801e-19
1.49661e-18
-6.49439e-17
-1.06416e-17
1.68218e-17
5.96821e-17
-5.87554e-19
1.01847e-18
-8.42578e-17
-2.73569e-17
4.54502e-17
6.86396e-17
-2.48949e-19
1.09046e-17
-2.22759e-21
1.25167e-18
6.88573e-21
1.0906e-17
-1.2515e-20
1.25195e-18
2.00012e-20
1.09127e-17
-3.3565e-20
1.25213e-18
5.22354e-20
1.09339e-17
-8.31283e-20
1.25177e-18
1.09712e-17
-1.87116e-19
1.27506e-18
1.22717e-19
2.80368e-19
1.10813e-17
-4.45173e-19
1.25988e-18
6.81679e-19
1.13614e-17
-1.10364e-18
1.24698e-18
1.20321e-17
-2.77556e-18
1.28429e-18
1.72724e-18
4.42094e-18
1.44437e-17
-7.07177e-18
1.36732e-18
-9.25332e-19
9.75667e-18
-2.18869e-21
5.92224e-20
-9.26504e-19
5.75764e-21
9.75528e-18
-8.98385e-21
5.46718e-20
-9.29108e-19
1.53436e-20
9.76451e-18
-3.06774e-20
9.87877e-21
-9.31647e-19
5.00035e-20
9.7827e-18
-8.24009e-20
-1.07937e-20
-2.6949e-19
-3.19352e-19
1.01886e-17
1.02497e-17
1.01386e-17
1.02e-17
-7.91878e-19
-6.17329e-19
-7.91913e-19
-6.21457e-19
-1.08199e-19
-3.02078e-19
-7.75632e-20
1.3223e-19
3.69461e-20
1.34338e-19
4.07368e-20
1.03024e-20
-3.27038e-19
3.37014e-20
-8.73259e-19
9.92277e-18
-4.29302e-19
3.95305e-20
-9.17554e-19
6.71255e-19
1.02316e-17
-1.11035e-18
2.45815e-20
-1.03519e-17
-3.45265e-19
1.14751e-17
1.2339e-17
1.14672e-17
1.23526e-17
-7.28301e-19
-7.07719e-19
-6.18575e-19
-7.65776e-19
6.90496e-20
-4.26354e-19
1.20232e-19
1.94797e-18
3.41147e-19
1.9885e-18
2.75027e-19
-4.60733e-19
1.3876e-17
-3.89995e-18
1.72575e-17
1.39595e-17
1.76281e-17
-4.93872e-19
-8.73031e-19
-8.68964e-19
-1.19223e-18
2.34221e-19
1.86951e-19
5.4634e-19
6.52174e-19
-3.75054e-18
8.47211e-19
-2.41832e-20
-2.32503e-19
1.01172e-17
1.01164e-17
1.00834e-17
1.0081e-17
-2.1061e-19
-2.13085e-19
-2.09173e-19
5.35144e-19
-4.72954e-22
5.41047e-19
-1.84822e-22
-2.26169e-20
-2.09335e-19
1.01169e-17
1.0126e-17
1.00809e-17
1.00769e-17
-2.09161e-19
-2.18931e-19
-2.17406e-19
5.41073e-19
2.9313e-21
5.34221e-19
2.47537e-20
-1.36139e-20
-2.58883e-20
-6.14791e-21
5.15184e-19
9.92153e-18
-3.56559e-20
-5.21709e-19
5.30503e-19
5.13092e-20
9.93926e-18
-7.94874e-20
-5.14908e-19
1.23753e-19
9.93163e-18
-2.00235e-19
-5.36314e-19
-1.89182e-18
-2.23723e-19
1.03653e-17
1.0502e-17
1.03096e-17
1.04697e-17
-2.21168e-19
-2.15484e-19
-2.11037e-19
4.97531e-19
-1.0458e-20
5.71089e-19
-2.4203e-21
3.36839e-19
5.20713e-20
3.54094e-19
6.9401e-20
-1.85342e-18
-2.1718e-19
1.0719e-17
1.11294e-17
1.06912e-17
1.11348e-17
-3.66925e-19
-1.83542e-18
-4.81025e-19
-2.07556e-19
-2.61135e-19
-2.15764e-19
5.87873e-19
-8.13233e-21
5.04085e-19
-2.97556e-20
1.09209e-17
-2.87055e-18
-6.45638e-19
4.55449e-18
1.33836e-17
-7.2504e-18
-7.9163e-19
9.88122e-18
-4.45698e-21
-3.09904e-19
1.04e-20
9.88518e-18
-2.00071e-20
-3.12426e-19
2.70159e-20
2.4667e-19
9.89768e-18
-3.76355e-20
-2.75596e-19
2.41801e-19
5.40057e-20
9.92262e-18
-8.05533e-20
-2.53356e-19
2.48494e-19
1.24215e-19
9.9691e-18
-1.99117e-19
-2.58762e-19
1.00722e-17
-4.90922e-19
-3.09884e-19
3.17212e-19
7.67798e-19
1.03486e-17
-1.20218e-18
-3.28451e-19
3.32321e-19
1.10912e-17
-2.99809e-18
-3.2567e-19
1.83481e-18
6.95949e-19
4.83288e-18
1.36222e-17
-7.8074e-18
-6.1643e-19
1.03026e-19
9.59949e-18
-3.2483e-21
2.5045e-19
1.08247e-19
8.61002e-21
9.60023e-18
-1.3196e-20
2.47093e-19
9.60523e-18
-3.45243e-20
2.34799e-19
2.14361e-20
1.10055e-19
5.3631e-20
9.62476e-18
-8.54799e-20
2.17826e-19
1.24894e-19
1.29694e-19
9.67081e-18
-2.04493e-19
2.22649e-19
1.18984e-19
1.25375e-19
3.12625e-19
9.78822e-18
-4.93254e-19
2.30646e-19
1.38712e-19
7.5802e-19
1.00832e-17
-1.21208e-18
2.21271e-19
1.67737e-19
1.08431e-17
-3.07148e-18
2.046e-19
1.90763e-18
4.2183e-19
4.91299e-18
1.31723e-17
-7.83388e-18
-1.78158e-19
6.43119e-19
9.20955e-18
-4.42568e-21
-5.74728e-19
6.41313e-19
9.3276e-21
9.21064e-18
-1.46974e-20
-5.76229e-19
6.35561e-19
9.2196e-18
-3.77614e-20
-5.87169e-19
2.29901e-20
6.35322e-19
5.72556e-20
9.2412e-18
-8.91053e-20
-5.81298e-19
6.39143e-19
1.33582e-19
9.28993e-18
-2.07602e-19
-5.71737e-19
6.47549e-19
3.16962e-19
9.40922e-18
-4.99482e-19
-5.80451e-19
6.69468e-19
7.6808e-19
9.7061e-18
-1.22442e-18
-5.97019e-19
7.21173e-19
1.04531e-17
-3.07916e-18
-6.04119e-19
1.9194e-18
7.43007e-19
4.80495e-18
1.26509e-17
-7.4018e-18
-1.47707e-18
8.86461e-18
-4.77371e-21
-1.76508e-18
3.01217e-19
8.83911e-21
8.86651e-18
-1.40469e-20
-1.76311e-18
3.03502e-19
2.25034e-20
8.87971e-18
-3.67794e-20
-1.76315e-18
3.18223e-19
8.89789e-18
-8.36486e-20
-1.76544e-18
5.42614e-20
3.10597e-19
1.27184e-19
8.94083e-18
-1.97523e-19
-1.7716e-18
3.02417e-19
3.0102e-19
9.05487e-18
-4.70951e-19
-1.78362e-18
3.08404e-19
7.2642e-19
9.34346e-18
-1.15028e-18
-1.80624e-18
3.14964e-19
1.01137e-17
-2.89154e-18
-1.85398e-18
1.80738e-18
3.03735e-19
4.78248e-18
1.26193e-17
-7.78433e-18
-2.45842e-18
1.78701e-18
1.18786e-18
9.61662e-18
-5.88812e-21
2.67558e-19
1.18985e-18
1.09454e-20
9.61821e-18
-1.75823e-20
2.68503e-19
1.19091e-18
2.84656e-20
9.62765e-18
-4.68905e-20
2.68438e-19
1.19331e-18
9.64827e-18
-1.07789e-19
2.67482e-19
6.96181e-20
1.19562e-18
1.63247e-19
9.7007e-18
-2.52951e-19
2.71318e-19
1.20143e-18
3.85448e-19
9.83064e-18
-5.99605e-19
2.74256e-19
1.21323e-18
9.17937e-19
1.01506e-17
-1.44541e-18
2.84364e-19
1.23258e-18
1.09835e-17
-3.59778e-18
3.12553e-19
2.2583e-18
1.33445e-18
5.75864e-18
1.33551e-17
-9.05878e-18
5.85939e-19
9.46251e-18
-4.19406e-21
-2.67787e-18
8.95526e-19
9.1231e-21
9.46603e-18
-1.67041e-20
-2.67803e-18
8.94138e-19
2.5317e-20
9.47418e-18
-4.1182e-20
-2.6784e-18
8.93857e-19
6.17946e-20
9.49543e-18
-9.59782e-20
-2.67606e-18
8.97617e-19
9.54586e-18
-2.29365e-19
-2.67715e-18
1.48182e-19
8.9352e-19
3.49457e-19
9.67143e-18
-5.3712e-19
-2.69814e-18
8.96522e-19
8.18985e-19
9.9819e-18
-1.27454e-18
-2.76327e-18
9.17179e-19
1.08026e-17
-3.13162e-18
-2.87051e-18
1.98092e-18
9.45936e-19
5.07234e-18
1.35167e-17
-7.98864e-18
-1.51857e-18
6.04314e-20
1.50151e-18
1.10838e-17
-4.21102e-21
-8.55221e-19
1.50446e-18
1.46033e-20
1.10864e-17
-2.3532e-20
-8.5583e-19
1.50508e-18
3.74628e-20
1.10975e-17
-6.03087e-20
-8.54937e-19
1.52445e-18
9.07965e-20
1.11284e-17
-1.40498e-19
-8.73481e-19
1.60634e-18
1.11982e-17
-3.21424e-19
-9.31613e-19
2.09959e-19
1.58386e-18
4.86447e-19
1.13537e-17
-7.47667e-19
-9.10326e-19
1.62421e-18
1.13449e-18
1.17386e-17
-1.76177e-18
-9.17234e-19
1.71076e-18
1.27263e-17
-4.2922e-18
-9.43988e-19
2.7225e-18
1.7087e-18
6.78681e-18
1.55791e-17
-1.03593e-17
-7.83939e-19
1.25622e-17
-8.59171e-21
-3.14026e-18
2.95251e-18
1.68874e-20
1.25647e-17
-2.95365e-20
-3.13847e-18
2.94988e-18