/*--------------------------------*- C++ -*----------------------------------*\
| =========                 |                                                 |
| \\      /  F ield         | foam-extend: Open Source CFD                    |
|  \\    /   O peration     | Version:     3.1                                |
|   \\  /    A nd           | Web:         http://www.extend-project.de       |
|    \\/     M anipulation  |                                                 |
\*---------------------------------------------------------------------------*/
FoamFile
{
    version     2.0;
    format      ascii;
    class       volScalarField;
    location    "345600";
    object      REpsilonHyd;
}
// * * * * * * * * * * * * * * * * * * * * * * * * * * * * * * * * * * * * * //

dimensions      [0 0 0 0 0 0 0];

internalField   nonuniform List<scalar> 
23248
(
8.36878e-08
8.38878e-08
8.41916e-08
8.50528e-08
8.81666e-08
9.46271e-08
1.11181e-07
1.54546e-07
2.78474e-07
8.74175e-08
8.77546e-08
8.84447e-08
8.96047e-08
9.46454e-08
1.04827e-07
1.31151e-07
1.99012e-07
3.64993e-07
-4.15499e-09
-4.38823e-09
-4.14155e-09
-3.25884e-09
-8.17827e-10
5.58521e-09
2.1935e-08
6.3573e-08
2.07166e-07
5.14495e-08
5.12607e-08
5.16638e-08
5.30101e-08
5.67261e-08
6.64223e-08
9.25177e-08
1.63605e-07
3.50473e-07
-2.26751e-09
-2.01528e-09
-1.74433e-09
-9.38448e-10
1.22085e-09
7.07073e-09
2.1886e-08
5.77124e-08
1.75819e-07
4.06071e-08
4.09419e-08
4.1351e-08
4.25934e-08
4.59627e-08
5.4955e-08
7.93587e-08
1.46166e-07
3.19781e-07
5.63665e-08
5.67857e-08
5.70355e-08
5.77853e-08
5.97899e-08
6.51565e-08
7.87545e-08
1.11429e-07
2.25657e-07
8.8235e-08
8.80069e-08
8.83386e-08
8.94938e-08
9.26284e-08
1.00876e-07
1.23101e-07
1.83754e-07
3.40475e-07
2.15666e-07
2.16126e-07
2.16384e-07
2.17183e-07
2.19621e-07
2.24539e-07
2.36356e-07
2.6155e-07
3.20333e-07
1.07636e-07
1.07547e-07
1.07888e-07
1.0908e-07
1.12243e-07
1.20183e-07
1.40734e-07
1.94458e-07
3.28283e-07
-2.00462e-07
-2.00436e-07
-2.00286e-07
-1.99649e-07
-1.97915e-07
-1.93072e-07
-1.80749e-07
-1.48926e-07
1.28828e-08
-6.32462e-08
-6.32711e-08
-6.30458e-08
-6.20258e-08
-5.91783e-08
-5.15713e-08
-3.07425e-08
2.6401e-08
1.7645e-07
-5.73396e-08
-5.78024e-08
-5.76381e-08
-5.69186e-08
-5.49428e-08
-5.13338e-08
-3.83663e-08
-3.4009e-09
1.18685e-07
-1.85414e-08
-1.89807e-08
-1.86971e-08
-1.75552e-08
-1.44476e-08
-6.35841e-09
1.52062e-08
7.31731e-08
2.20219e-07
3.56328e-08
3.51911e-08
3.53289e-08
3.60674e-08
3.83975e-08
4.19168e-08
5.48223e-08
7.60434e-08
1.47373e-07
8.43441e-09
9.14779e-09
9.52701e-09
1.06625e-08
1.3617e-08
2.11883e-08
4.08003e-08
9.09374e-08
2.1259e-07
-8.85422e-09
-9.05741e-09
-9.00713e-09
-7.62397e-09
-5.40355e-09
-2.76628e-10
1.47539e-08
5.21495e-08
1.27967e-07
-2.958e-08
-2.93937e-08
-2.88906e-08
-2.76265e-08
-2.45551e-08
-1.65021e-08
5.68948e-09
6.60073e-08
2.17951e-07
2.30984e-08
2.20639e-08
2.28048e-08
2.36705e-08
2.54113e-08
2.90469e-08
1.34944e-08
5.95263e-08
1.4639e-07
-1.5078e-08
-1.44637e-08
-1.394e-08
-1.27268e-08
-9.90317e-09
-3.30278e-09
1.42403e-08
7.21841e-08
2.16483e-07
-4.59229e-08
-4.60739e-08
-4.7016e-08
-4.57556e-08
-4.28998e-08
-3.08888e-08
3.48779e-08
3.19129e-08
1.14477e-07
-1.89102e-08
-1.80099e-08
-1.7427e-08
-1.57205e-08
-1.12226e-08
-6.21974e-10
5.74891e-09
8.95546e-08
2.34215e-07
2.13442e-08
2.10452e-08
2.15326e-08
2.27964e-08
2.58489e-08
3.45079e-08
1.01011e-07
9.41918e-08
2.12106e-07
3.42643e-08
3.54074e-08
3.61923e-08
3.80487e-08
4.26886e-08
5.41129e-08
8.11909e-08
1.41383e-07
3.00648e-07
1.49234e-07
1.49747e-07
1.50201e-07
1.51306e-07
1.5368e-07
1.58271e-07
1.68373e-07
2.04724e-07
3.42968e-07
1.35316e-07
1.35273e-07
1.36002e-07
1.37843e-07
1.4228e-07
1.53089e-07
1.80125e-07
2.4859e-07
4.23261e-07
-8.67897e-08
-8.43769e-08
-8.37586e-08
-8.2238e-08
-7.85422e-08
-6.96875e-08
-4.85856e-08
5.28141e-09
3.93215e-07
1.59545e-07
1.59964e-07
1.60918e-07
1.633e-07
1.69095e-07
1.832e-07
2.17722e-07
3.01792e-07
5.36864e-07
-8.81758e-08
-8.91639e-08
-8.88093e-08
-8.70723e-08
-8.27559e-08
-7.26038e-08
-5.04283e-08
-4.93258e-10
2.84844e-07
2.92957e-07
2.92909e-07
2.9392e-07
2.96665e-07
3.03487e-07
3.20438e-07
3.63033e-07
4.67936e-07
7.06223e-07
2.65065e-07
2.65758e-07
2.6656e-07
2.68759e-07
2.73832e-07
2.84771e-07
3.04926e-07
3.43178e-07
6.66726e-07
5.78381e-07
5.78527e-07
5.79887e-07
5.83254e-07
5.91326e-07
6.1101e-07
6.59303e-07
7.71972e-07
1.00912e-06
5.72334e-07
5.71387e-07
5.72278e-07
5.74541e-07
5.79541e-07
5.89245e-07
6.04423e-07
6.27377e-07
8.58941e-07
6.30976e-07
6.31051e-07
6.32552e-07
6.36369e-07
6.45437e-07
6.67116e-07
7.17916e-07
8.28631e-07
1.03848e-06
2.13197e-07
2.1274e-07
2.13978e-07
2.17101e-07
2.24075e-07
2.38649e-07
2.6701e-07
3.32765e-07
7.56041e-07
4.60824e-07
4.61856e-07
4.63685e-07
4.68037e-07
4.78531e-07
5.03858e-07
5.64492e-07
7.02237e-07
1.02319e-06
5.143e-07
5.13883e-07
5.14773e-07
5.17128e-07
5.22281e-07
5.32673e-07
5.51596e-07
5.88535e-07
7.7864e-07
4.58238e-07
4.59701e-07
4.61398e-07
4.65438e-07
4.75009e-07
4.97722e-07
5.51632e-07
6.7547e-07
9.29989e-07
5.34218e-08
5.4108e-08
5.43199e-08
5.5068e-08
5.98193e-08
6.4772e-08
8.10844e-08
1.23249e-07
2.41398e-07
-1.06797e-07
-1.06278e-07
-1.07619e-07
-1.06728e-07
-4.36433e-08
-9.35572e-08
-6.71404e-08
1.07082e-07
5.61578e-07
7.17659e-08
7.66601e-08
8.77994e-08
8.54973e-08
9.54837e-08
1.02425e-07
1.34287e-07
1.94343e-07
3.50304e-07
4.97126e-08
4.94661e-08
5.53733e-08
5.59217e-08
5.98892e-08
6.34261e-08
8.642e-08
1.51245e-07
3.25562e-07
3.85292e-08
3.90871e-08
3.93643e-08
3.96372e-08
4.32934e-08
5.37191e-08
7.8402e-08
1.40892e-07
3.35111e-07
2.72943e-08
2.78219e-08
2.77516e-08
2.98141e-08
3.51635e-08
4.61873e-08
7.27865e-08
1.39596e-07
2.79737e-07
-1.21591e-07
-1.21026e-07
-1.18948e-07
-1.17101e-07
-1.13518e-07
-1.01987e-07
-7.37755e-08
-8.30761e-10
2.90528e-07
9.14826e-08
9.192e-08
9.26833e-08
9.48257e-08
9.9486e-08
1.11383e-07
1.39123e-07
2.06844e-07
4.1967e-07
-1.44882e-07
-1.44701e-07
-1.43922e-07
-1.41897e-07
-1.37443e-07
-1.25409e-07
-9.79957e-08
-2.84132e-08
2.13389e-07
-9.77255e-09
-1.00466e-08
-9.29936e-09
-6.97679e-09
-5.29049e-09
8.18467e-09
3.79005e-08
1.05979e-07
3.36462e-07
5.67106e-08
5.66162e-08
5.75467e-08
6.00365e-08
6.45389e-08
7.81177e-08
1.05796e-07
1.66584e-07
3.72154e-07
7.91552e-08
7.92845e-08
8.0123e-08
8.23003e-08
8.75094e-08
9.93827e-08
1.26935e-07
1.90953e-07
4.36033e-07
1.96623e-07
1.95762e-07
1.96603e-07
1.98904e-07
2.04528e-07
2.17791e-07
2.42893e-07
3.02959e-07
5.37529e-07
4.0532e-07
4.06306e-07
4.07328e-07
4.09623e-07
4.14792e-07
4.26038e-07
4.51521e-07
5.04116e-07
6.97089e-07
4.18273e-07
4.18843e-07
4.19887e-07
4.2233e-07
4.27796e-07
4.39663e-07
4.6498e-07
5.22865e-07
7.20742e-07
3.33743e-07
3.33997e-07
3.35161e-07
3.37932e-07
3.44098e-07
3.57457e-07
3.86058e-07
4.52772e-07
7.06214e-07
1.85419e-07
1.85893e-07
1.87186e-07
1.90239e-07
1.97103e-07
2.11406e-07
2.41955e-07
3.1082e-07
5.23929e-07
3.97912e-07
3.9826e-07
3.99545e-07
4.02505e-07
4.08831e-07
4.22655e-07
4.51475e-07
5.16633e-07
7.4791e-07
2.27568e-07
2.2747e-07
2.28775e-07
2.31899e-07
2.38696e-07
2.53091e-07
2.83337e-07
3.52444e-07
5.88591e-07
3.91262e-08
3.94986e-08
4.01233e-08
4.15849e-08
4.67146e-08
5.7167e-08
8.55428e-08
1.60297e-07
3.50077e-07
-6.27883e-08
-6.08045e-08
-5.98363e-08
-5.73517e-08
-4.73449e-08
-3.9847e-08
-7.88389e-09
7.15368e-08
2.91623e-07
4.22577e-08
4.41601e-08
6.75859e-08
7.12789e-08
7.71169e-08
6.51101e-08
9.77165e-08
2.10287e-07
4.23401e-07
2.25608e-08
2.34633e-08
2.73197e-08
2.97038e-08
3.47206e-08
4.61205e-08
8.37117e-08
1.85891e-07
4.29835e-07
4.30943e-08
4.48209e-08
4.57084e-08
4.81092e-08
5.44971e-08
7.07242e-08
1.12178e-07
2.18205e-07
4.67651e-07
-8.55297e-09
-7.65949e-09
-6.51897e-09
-3.36706e-09
3.86581e-09
2.1602e-08
6.63509e-08
1.79123e-07
4.57742e-07
-4.56015e-08
-4.39155e-08
-4.25823e-08
-3.96201e-08
-3.23828e-08
-1.42313e-08
3.16162e-08
1.48512e-07
4.30956e-07
-2.60089e-08
-2.47455e-08
-2.34791e-08
-2.03898e-08
-1.27225e-08
6.41886e-09
5.40012e-08
1.71096e-07
4.3636e-07
-1.52781e-08
-1.44888e-08
-1.3333e-08
-1.04335e-08
-2.9646e-09
1.61148e-08
6.28676e-08
1.73885e-07
4.0695e-07
-3.72736e-08
-3.66576e-08
-3.54233e-08
-3.22174e-08
-2.42648e-08
-5.22576e-09
4.16238e-08
1.56109e-07
4.37299e-07
1.20707e-07
1.21958e-07
1.23444e-07
1.26975e-07
1.35216e-07
1.5539e-07
2.04029e-07
3.1844e-07
5.62299e-07
2.32792e-07
2.33013e-07
2.34303e-07
2.37642e-07
2.45733e-07
2.65391e-07
3.1369e-07
4.30005e-07
6.86924e-07
3.51272e-07
3.51437e-07
3.52774e-07
3.56251e-07
3.64592e-07
3.84498e-07
4.324e-07
5.46353e-07
7.86948e-07
4.51208e-07
4.51549e-07
4.5305e-07
4.56696e-07
4.65216e-07
4.85251e-07
5.32534e-07
6.41685e-07
8.69533e-07
4.2929e-07
4.29351e-07
4.30922e-07
4.34828e-07
4.43822e-07
4.64473e-07
5.12391e-07
6.22848e-07
8.56854e-07
3.35354e-07
3.36276e-07
3.38146e-07
3.42598e-07
3.52771e-07
3.76022e-07
4.29051e-07
5.4882e-07
8.1495e-07
2.62766e-07
2.63725e-07
2.65768e-07
2.70515e-07
2.81212e-07
3.05233e-07
3.59369e-07
4.80119e-07
7.39042e-07
3.67221e-07
3.68337e-07
3.70451e-07
3.75318e-07
3.86172e-07
4.10302e-07
4.63968e-07
5.82016e-07
8.29898e-07
2.54276e-07
2.55462e-07
2.57643e-07
2.62644e-07
2.73752e-07
2.98384e-07
3.53271e-07
4.7491e-07
7.33839e-07
3.10159e-07
3.1182e-07
3.23128e-07
3.64996e-07
3.9312e-07
3.92492e-07
3.94545e-07
3.59077e-07
3.45031e-07
3.49783e-07
3.51688e-07
3.54408e-07
3.30206e-07
2.80638e-07
2.22555e-07
2.17247e-07
2.11322e-07
2.00175e-07
2.1913e-07
3.49196e-07
3.50427e-07
3.26979e-07
3.45248e-07
3.41908e-07
3.48978e-07
3.36712e-07
3.12259e-07
3.11534e-07
3.20389e-07
3.26942e-07
3.61838e-07
3.39291e-07
2.78905e-07
2.41245e-07
2.05112e-07
2.06632e-07
1.64507e-07
2.41998e-07
3.28237e-07
3.51616e-07
3.68011e-07
3.48546e-07
3.70717e-07
3.5121e-07
3.30062e-07
3.17189e-07
3.19716e-07
3.27388e-07
3.02428e-07
3.17292e-07
3.22855e-07
3.06107e-07
2.50949e-07
2.09215e-07
2.16459e-07
2.30543e-07
2.62742e-07
3.41131e-07
3.33089e-07
3.26557e-07
3.2019e-07
3.30805e-07
3.23966e-07
2.95538e-07
2.88883e-07
2.73394e-07
3.57277e-07
2.79009e-07
2.86098e-07
3.09139e-07
2.88713e-07
2.54879e-07
2.19855e-07
2.00063e-07
2.09464e-07
1.83887e-07
3.15084e-07
3.37413e-07
3.46884e-07
3.24741e-07
3.49622e-07
3.42134e-07
3.01975e-07
2.89885e-07
3.03262e-07
2.35855e-07
3.14994e-07
2.24318e-07
3.4514e-07
2.99014e-07
2.75769e-07
2.46185e-07
2.20824e-07
2.73778e-07
2.49903e-07
3.06627e-07
3.10468e-07
3.24931e-07
3.27052e-07
3.44951e-07
3.26787e-07
3.02469e-07
3.04383e-07
3.06412e-07
2.85039e-07
3.35544e-07
2.31146e-07
2.58746e-07
3.02042e-07
2.75378e-07
2.48242e-07
2.30283e-07
2.24236e-07
2.20106e-07
2.53302e-07
2.70784e-07
2.78298e-07
3.04613e-07
3.24784e-07
3.10197e-07
3.09326e-07
3.30677e-07
3.44014e-07
3.4102e-07
2.04828e-07
2.89677e-07
3.06894e-07
3.41239e-07
3.96818e-07
1.83295e-07
2.18616e-07
2.17382e-07
2.4855e-07
2.80117e-07
2.82655e-07
2.83446e-07
3.00861e-07
3.20018e-07
3.19366e-07
3.15058e-07
3.70773e-07
3.73587e-07
3.1946e-07
2.8583e-07
3.10976e-07
2.23924e-07
3.95903e-07
3.17521e-07
2.62543e-07
1.75825e-07
2.28949e-07
2.09421e-07
2.46997e-07
2.43314e-07
2.45538e-07
2.88342e-07
3.1787e-07
3.5105e-07
3.69962e-07
4.23785e-07
4.02539e-07
3.32865e-07
3.13821e-07
2.368e-07
2.20436e-07
2.88245e-07
3.5655e-07
4.05887e-07
1.77183e-07
2.45165e-07
2.36594e-07
2.56406e-07
2.54097e-07
2.59158e-07
2.78707e-07
3.29421e-07
3.49747e-07
3.91777e-07
4.16567e-07
4.01911e-07
3.4863e-07
2.96078e-07
2.91749e-07
2.59123e-07
1.91708e-07
3.94143e-07
3.57546e-07
2.41527e-07
2.58872e-07
2.31243e-07
2.3594e-07
2.27353e-07
2.51144e-07
2.86415e-07
3.25622e-07
3.95883e-07
4.42845e-07
4.508e-07
4.1277e-07
3.51598e-07
2.93559e-07
2.82324e-07
2.01178e-07
2.49745e-07
2.9229e-07
3.58927e-07
3.72056e-07
2.41271e-07
2.39704e-07
2.4881e-07
2.55105e-07
2.68119e-07
2.93752e-07
2.86393e-07
3.85179e-07
4.22373e-07
4.25098e-07
3.83664e-07
3.40052e-07
3.08962e-07
2.45632e-07
2.78241e-07
2.43029e-07
2.18243e-07
3.88555e-07
3.46326e-07
2.20175e-07
1.8878e-07
2.39419e-07
2.67334e-07
2.83464e-07
2.8925e-07
3.32584e-07
4.02167e-07
4.36347e-07
4.34707e-07
3.80513e-07
3.24123e-07
2.92448e-07
2.47483e-07
2.78961e-07
2.01888e-07
2.67352e-07
2.63308e-07
3.41237e-07
2.51887e-07
2.58164e-07
2.65512e-07
2.85769e-07
2.90103e-07
2.88471e-07
3.29743e-07
3.82418e-07
3.89584e-07
4.19683e-07
3.63191e-07
2.98434e-07
2.58567e-07
2.66301e-07
2.26131e-07
2.91949e-07
2.3758e-07
2.28967e-07
3.59484e-07
3.22091e-07
2.06692e-07
2.75432e-07
3.12571e-07
2.77018e-07
3.53132e-07
3.10119e-07
3.71493e-07
3.96103e-07
3.86083e-07
3.65754e-07
2.59799e-07
2.43889e-07
2.57922e-07
2.24198e-07
2.83309e-07
2.01458e-07
2.43522e-07
2.14104e-07
3.20523e-07
2.77201e-07
2.91985e-07
3.05874e-07
2.28611e-07
3.71032e-07
3.10599e-07
3.27959e-07
3.70976e-07
3.00615e-07
3.49039e-07
2.66111e-07
2.31374e-07
2.32717e-07
2.55812e-07
1.99887e-07
2.95906e-07
2.46205e-07
2.52697e-07
2.68818e-07
3.38949e-07
3.07312e-07
2.89865e-07
2.78503e-07
2.62741e-07
3.58008e-07
3.27597e-07
3.07508e-07
2.62297e-07
2.61813e-07
2.49406e-07
1.86168e-07
2.26008e-07
2.22223e-07
2.06049e-07
2.97269e-07
2.12352e-07
2.2762e-07
2.21587e-07
2.76184e-07
3.04328e-07
2.61122e-07
3.09352e-07
2.40118e-07
3.44833e-07
3.01193e-07
2.44278e-07
2.878e-07
1.94815e-07
2.68923e-07
1.94563e-07
2.15183e-07
2.18989e-07
2.51902e-07
1.9991e-07
1.61168e-07
2.51211e-07
2.68214e-07
2.74832e-07
3.0034e-07
2.87044e-07
2.61446e-07
2.75973e-07
2.47458e-07
3.01088e-07
2.26212e-07
2.13544e-07
1.74729e-07
2.1463e-07
2.20813e-07
1.727e-07
2.15102e-07
1.68787e-07
2.37333e-07
2.32524e-07
2.52185e-07
2.72769e-07
2.99024e-07
2.61771e-07
2.9859e-07
2.2671e-07
2.94713e-07
2.20807e-07
2.6915e-07
2.27168e-07
1.51103e-07
2.28445e-07
1.48047e-07
2.55912e-07
1.66608e-07
2.04106e-07
2.08116e-07
2.56893e-07
2.31843e-07
2.37569e-07
2.69319e-07
3.15104e-07
2.73271e-07
2.69873e-07
2.85361e-07
2.39159e-07
2.45915e-07
2.1702e-07
1.52329e-07
1.52102e-07
2.12272e-07
1.98964e-07
1.91006e-07
2.17397e-07
1.9948e-07
1.70414e-07
2.10516e-07
2.53052e-07
2.55776e-07
2.96154e-07
3.3502e-07
2.87541e-07
2.51647e-07
2.6996e-07
1.97169e-07
2.22776e-07
1.72608e-07
1.8194e-07
1.82476e-07
1.19282e-07
2.29396e-07
1.19389e-07
2.47575e-07
1.64484e-07
1.58391e-07
2.31908e-07
2.3553e-07
2.46216e-07
2.61077e-07
3.06485e-07
2.9101e-07
2.70837e-07
2.07945e-07
2.27893e-07
2.07131e-07
1.45968e-07
1.5012e-07
2.12475e-07
1.37251e-07
1.59519e-07
1.80341e-07
1.92118e-07
2.16991e-07
1.86283e-07
1.64592e-07
2.63991e-07
2.66947e-07
2.97644e-07
3.46834e-07
2.64854e-07
2.61892e-07
1.99718e-07
2.0965e-07
1.55899e-07
1.60868e-07
1.28209e-07
1.75838e-07
1.79671e-07
8.88442e-08
2.21737e-07
1.12495e-07
2.54252e-07
1.64557e-07
1.72432e-07
2.60805e-07
2.5168e-07
2.61689e-07
2.81316e-07
2.93563e-07
2.42524e-07
2.04273e-07
1.36754e-07
1.49641e-07
1.41358e-07
1.17187e-07
1.30082e-07
1.24142e-07
1.19094e-07
2.04212e-07
1.43646e-07
1.4652e-07
2.02454e-07
2.13829e-07
2.42529e-07
2.78324e-07
2.8248e-07
3.32693e-07
2.69583e-07
2.49573e-07
2.09572e-07
1.44958e-07
1.4919e-07
1.13098e-07
1.27275e-07
1.24319e-07
1.46151e-07
1.77291e-07
9.86519e-08
2.17098e-07
1.1642e-07
2.49437e-07
1.78106e-07
2.40939e-07
2.55513e-07
2.49566e-07
2.80374e-07
2.84029e-07
2.26468e-07
1.58824e-07
1.51987e-07
9.94202e-08
1.2454e-07
1.22775e-07
1.17863e-07
1.19235e-07
2.09419e-07
1.24275e-07
1.73933e-07
2.1385e-07
1.33916e-07
2.40938e-07
2.52115e-07
2.79363e-07
2.83001e-07
3.08195e-07
2.59086e-07
2.15424e-07
1.99512e-07
1.53836e-07
1.28159e-07
1.22201e-07
1.15046e-07
1.21552e-07
1.29614e-07
1.7857e-07
1.90102e-07
1.05249e-07
2.45105e-07
1.42787e-07
2.57567e-07
2.4344e-07
2.70619e-07
2.48598e-07
2.69371e-07
2.56967e-07
2.06715e-07
1.56887e-07
1.3502e-07
1.26009e-07
9.2845e-08
1.09565e-07
1.06287e-07
1.19215e-07
1.18684e-07
2.17364e-07
1.6696e-07
2.21134e-07
2.68128e-07
2.41875e-07
2.77924e-07
2.76551e-07
2.70051e-07
3.07958e-07
2.41824e-07
2.09309e-07
1.67152e-07
1.51596e-07
1.28349e-07
1.08723e-07
1.08796e-07
1.11703e-07
1.29595e-07
1.49005e-07
2.04272e-07
2.04231e-07
2.04837e-07
2.29562e-07
1.72235e-07
2.55097e-07
2.76382e-07
2.53746e-07
2.84819e-07
2.1986e-07
1.92416e-07
1.50398e-07
1.44965e-07
1.32799e-07
1.17511e-07
1.03604e-07
1.17622e-07
1.1618e-07
1.38999e-07
1.63859e-07
2.09368e-07
2.38802e-07
2.49929e-07
2.69922e-07
3.06789e-07
2.7415e-07
2.85431e-07
2.90319e-07
2.10336e-07
1.8059e-07
1.54555e-07
1.41713e-07
1.41442e-07
1.14594e-07
1.08283e-07
1.1382e-07
1.2277e-07
1.51554e-07
1.7627e-07
1.89155e-07
2.28825e-07
2.40221e-07
2.3982e-07
2.76929e-07
2.80517e-07
2.62178e-07
2.80482e-07
2.05971e-07
1.42828e-07
1.90482e-07
1.39604e-07
1.39584e-07
1.32458e-07
1.19146e-07
1.14615e-07
1.39469e-07
1.60009e-07
2.00282e-07
2.39432e-07
2.72008e-07
2.69156e-07
3.06079e-07
3.0349e-07
3.01192e-07
2.91381e-07
2.95191e-07
1.82048e-07
1.67464e-07
1.77999e-07
1.52611e-07
1.36714e-07
1.32401e-07
1.22529e-07
1.23057e-07
1.3559e-07
1.57308e-07
1.88537e-07
2.28088e-07
2.55091e-07
2.60918e-07
2.68521e-07
2.88612e-07
2.92612e-07
2.7001e-07
2.91672e-07
1.93257e-07
1.80167e-07
1.29442e-07
1.74526e-07
1.41039e-07
1.48722e-07
1.42377e-07
1.45081e-07
1.68265e-07
1.96711e-07
2.41296e-07
2.95842e-07
3.17917e-07
3.18717e-07
3.12197e-07
2.94108e-07
2.88585e-07
2.90159e-07
2.922e-07
1.69688e-07
1.25613e-07
1.79314e-07
1.78638e-07
1.49179e-07
1.53577e-07
1.34145e-07
1.4325e-07
1.62641e-07
1.89638e-07
2.27438e-07
2.68984e-07
2.91584e-07
2.92545e-07
2.81702e-07
2.97725e-07
2.73088e-07
2.60332e-07
2.85919e-07
1.93153e-07
1.88671e-07
1.76595e-07
1.25505e-07
1.67878e-07
1.64663e-07
1.78193e-07
1.99794e-07
2.1172e-07
2.51621e-07
2.94215e-07
3.37079e-07
3.45485e-07
3.3637e-07
2.63411e-07
2.62716e-07
2.54587e-07
2.70508e-07
2.96775e-07
1.77766e-07
1.78532e-07
1.34352e-07
1.77566e-07
1.95724e-07
1.64818e-07
1.90658e-07
1.83097e-07
2.00867e-07
2.43665e-07
2.59133e-07
3.07796e-07
3.32744e-07
3.09846e-07
2.91471e-07
2.80463e-07
2.57573e-07
2.5504e-07
2.90388e-07
5.8749e-07
7.97092e-07
5.76747e-07
5.29086e-07
6.59343e-07
5.33745e-07
5.78176e-07
4.77015e-07
4.58893e-07
4.90207e-07
4.69755e-07
4.41745e-07
4.65828e-07
4.87359e-07
4.1967e-07
3.6068e-07
3.57464e-07
3.48169e-07
3.40846e-07
6.50689e-07
6.89973e-07
5.54053e-07
5.12525e-07
5.21778e-07
4.79205e-07
5.09266e-07
3.88351e-07
3.61144e-07
4.57284e-07
4.48287e-07
4.18451e-07
4.40761e-07
4.50047e-07
3.85025e-07
3.52187e-07
3.82973e-07
3.64208e-07
3.52826e-07
6.28115e-07
6.2473e-07
4.50692e-07
4.48773e-07
4.82343e-07
5.65291e-07
5.9189e-07
5.06357e-07
5.23915e-07
5.6542e-07
5.38409e-07
4.85961e-07
5.321e-07
5.11657e-07
4.38202e-07
3.91748e-07
3.86869e-07
3.45201e-07
3.0722e-07
5.8649e-07
5.92659e-07
4.84634e-07
4.37652e-07
4.28922e-07
4.73475e-07
4.7692e-07
4.55267e-07
4.47538e-07
4.87696e-07
4.50362e-07
4.85238e-07
4.98968e-07
4.56736e-07
4.36919e-07
4.03493e-07
3.7598e-07
3.42295e-07
3.26675e-07
5.97101e-07
5.68232e-07
3.83505e-07
4.24754e-07
4.94636e-07
5.25396e-07
5.48711e-07
5.37277e-07
5.14434e-07
5.09117e-07
4.96584e-07
4.81093e-07
5.07292e-07
5.01931e-07
4.36882e-07
4.27033e-07
4.00527e-07
3.4016e-07
3.2075e-07
5.31294e-07
5.45876e-07
4.39544e-07
4.05438e-07
4.30753e-07
4.26759e-07
4.17664e-07
4.07677e-07
4.58279e-07
4.97349e-07
4.95435e-07
4.57299e-07
4.91319e-07
4.75622e-07
4.32411e-07
4.17596e-07
3.77762e-07
2.91184e-07
3.15377e-07
6.3406e-07
4.92601e-07
3.89919e-07
3.68821e-07
3.95233e-07
4.60915e-07
5.04314e-07
5.17756e-07
5.14363e-07
4.26313e-07
4.51766e-07
5.11777e-07
4.55202e-07
4.50962e-07
4.47023e-07
4.50904e-07
3.82171e-07
3.40311e-07
3.26506e-07
6.08394e-07
4.76141e-07
3.94226e-07
3.60307e-07
3.71085e-07
3.80683e-07
3.94621e-07
4.13566e-07
4.50371e-07
4.56049e-07
4.64726e-07
5.01361e-07
4.5949e-07
4.50179e-07
4.38076e-07
4.25768e-07
3.79266e-07
3.17552e-07
2.94046e-07
5.68941e-07
4.88998e-07
3.78307e-07
3.63263e-07
3.6769e-07
3.93625e-07
4.07409e-07
4.24237e-07
4.65073e-07
4.10713e-07
4.48557e-07
4.9341e-07
4.90245e-07
4.82149e-07
4.5008e-07
4.43976e-07
3.96488e-07
3.54148e-07
2.63558e-07
5.4098e-07
4.84526e-07
3.72886e-07
3.31505e-07
3.29493e-07
3.34908e-07
3.5504e-07
3.89226e-07
4.23085e-07
4.09527e-07
4.48914e-07
5.0401e-07
4.46645e-07
4.53811e-07
4.48855e-07
4.41494e-07
3.88362e-07
3.54534e-07
2.87459e-07
4.03157e-07
4.88397e-07
2.89452e-07
3.02079e-07
2.97493e-07
2.76293e-07
3.28038e-07
3.72716e-07
4.38698e-07
3.70288e-07
4.38759e-07
4.87275e-07
4.73439e-07
4.76968e-07
4.64854e-07
4.39012e-07
4.08389e-07
3.26784e-07
2.42698e-07
4.32179e-07
4.69095e-07
3.45024e-07
2.97233e-07
2.65772e-07
2.70273e-07
2.97157e-07
3.4576e-07
3.72509e-07
3.64095e-07
4.27136e-07
4.86418e-07
4.52039e-07
4.50376e-07
4.83034e-07
4.42075e-07
3.54945e-07
3.27344e-07
2.8005e-07
5.30335e-07
3.78913e-07
1.99352e-07
2.41192e-07
2.58096e-07
2.05676e-07
2.88737e-07
3.53459e-07
3.95858e-07
3.45995e-07
4.09436e-07
4.30762e-07
4.36285e-07
4.70243e-07
4.87706e-07
4.39986e-07
3.75995e-07
2.80056e-07
2.40754e-07
4.87121e-07
3.77232e-07
3.02964e-07
2.9335e-07
2.70334e-07
2.22202e-07
2.40824e-07
3.03942e-07
3.26529e-07
3.44003e-07
4.22939e-07
4.28188e-07
4.24878e-07
4.69086e-07
4.87141e-07
3.94466e-07
3.45101e-07
3.12321e-07
2.82929e-07
4.63324e-07
3.46245e-07
2.47626e-07
2.81727e-07
2.0607e-07
2.40002e-07
2.32107e-07
2.57614e-07
3.23964e-07
2.94849e-07
3.32038e-07
3.98515e-07
4.22777e-07
4.63648e-07
4.98145e-07
4.20895e-07
3.06433e-07
3.00443e-07
2.81083e-07
4.40267e-07
3.70078e-07
3.03794e-07
3.11309e-07
2.61363e-07
2.36773e-07
2.28251e-07
2.47428e-07
2.86749e-07
3.04259e-07
3.40521e-07
4.10196e-07
3.97924e-07
4.62111e-07
4.44782e-07
3.71497e-07
3.26159e-07
3.24513e-07
3.08106e-07
6.26881e-07
2.36188e-07
2.22139e-07
1.77326e-07
1.92804e-07
2.25684e-07
2.03795e-07
2.71031e-07
2.71456e-07
2.80028e-07
3.50664e-07
3.67908e-07
4.01185e-07
4.53536e-07
4.31649e-07
3.57531e-07
3.22589e-07
3.50288e-07
3.49347e-07
4.76164e-07
3.39932e-07
2.63254e-07
2.41446e-07
2.45359e-07
2.41119e-07
2.33001e-07
2.44203e-07
2.4446e-07
2.79042e-07
3.15957e-07
3.46343e-07
3.71107e-07
4.32016e-07
3.85872e-07
3.47701e-07
3.29613e-07
3.5648e-07
3.4546e-07
5.74987e-07
2.90484e-07
1.71818e-07
2.53285e-07
2.00314e-07
1.62382e-07
2.32442e-07
2.47862e-07
3.15261e-07
3.00425e-07
3.32488e-07
3.31804e-07
3.61421e-07
3.97466e-07
3.71859e-07
3.2184e-07
3.56331e-07
4.03789e-07
3.7647e-07
4.4755e-07
3.7591e-07
2.7129e-07
2.39784e-07
2.21132e-07
2.2578e-07
2.11292e-07
2.24898e-07
2.55502e-07
2.87407e-07
3.17331e-07
3.18139e-07
3.59708e-07
3.6339e-07
3.34282e-07
3.15079e-07
3.62087e-07
3.92314e-07
3.555e-07
5.62954e-07
3.35712e-07
2.51444e-07
2.37897e-07
1.98644e-07
2.40554e-07
2.21527e-07
2.27619e-07
2.71021e-07
2.86121e-07
2.8932e-07
2.92473e-07
3.45291e-07
3.58547e-07
3.28797e-07
2.92839e-07
3.99938e-07
4.20583e-07
3.46176e-07
4.73325e-07
3.58067e-07
2.72052e-07
2.19303e-07
2.00088e-07
2.61063e-07
2.29595e-07
2.16651e-07
2.46421e-07
2.72777e-07
3.02211e-07
2.8934e-07
3.17003e-07
3.25201e-07
3.09637e-07
3.20634e-07
3.943e-07
3.82988e-07
2.7057e-07
6.43175e-07
3.29091e-07
1.81647e-07
1.22123e-07
2.25518e-07
2.65221e-07
2.37051e-07
2.5425e-07
2.59517e-07
1.70914e-07
2.77589e-07
2.81969e-07
3.18729e-07
3.26198e-07
3.17659e-07
3.40558e-07
4.08762e-07
4.0391e-07
3.38396e-07
5.34857e-07
4.10714e-07
2.84664e-07
2.30521e-07
2.23231e-07
2.70245e-07
2.44041e-07
2.40285e-07
2.57942e-07
2.30299e-07
2.67417e-07
2.59871e-07
3.05937e-07
2.5277e-07
2.90661e-07
3.36868e-07
3.79496e-07
3.44841e-07
3.10168e-07
7.89777e-07
3.97437e-07
1.33139e-07
1.68646e-07
2.30455e-07
1.91206e-07
2.58905e-07
2.67009e-07
2.83466e-07
1.82224e-07
2.68522e-07
2.80437e-07
2.9991e-07
2.65482e-07
3.29337e-07
3.44162e-07
3.78901e-07
3.74433e-07
3.4992e-07
7.31855e-07
5.31929e-07
3.50858e-07
2.87291e-07
2.87451e-07
2.86376e-07
2.9378e-07
2.79846e-07
2.51583e-07
2.34225e-07
2.57791e-07
2.09549e-07
2.65236e-07
1.93394e-07
2.77968e-07
3.41472e-07
3.66577e-07
3.34737e-07
3.10299e-07
8.17177e-07
3.14103e-07
1.40597e-07
1.80458e-07
1.53896e-07
2.91794e-07
2.09454e-07
2.18107e-07
2.18593e-07
1.99763e-07
2.85869e-07
2.32582e-07
2.48081e-07
2.33486e-07
2.95559e-07
3.12523e-07
3.31545e-07
3.57813e-07
3.41078e-07
8.55638e-07
6.56716e-07
3.99172e-07
3.78243e-07
3.52749e-07
3.14008e-07
3.47227e-07
2.67507e-07
2.53648e-07
2.47748e-07
2.46861e-07
1.7394e-07
2.31357e-07
2.11017e-07
2.79629e-07
3.04721e-07
3.43881e-07
3.36783e-07
3.03808e-07
1.06673e-06
3.66618e-07
2.97932e-07
3.09869e-07
3.05747e-07
3.46232e-07
2.55997e-07
2.7591e-07
2.51808e-07
2.00968e-07
2.25479e-07
1.87609e-07
2.33302e-07
2.17679e-07
2.38636e-07
2.69558e-07
3.02793e-07
2.99871e-07
2.92328e-07
1.20729e-06
8.61578e-07
6.6915e-07
5.24644e-07
4.6689e-07
4.40234e-07
3.77674e-07
3.51132e-07
2.76151e-07
2.54602e-07
2.28053e-07
1.59108e-07
2.26001e-07
2.31851e-07
2.57286e-07
2.86046e-07
3.25813e-07
2.98742e-07
2.69498e-07
1.44976e-06
8.329e-07
3.64502e-07
4.23289e-07
4.90106e-07
3.81911e-07
4.18807e-07
2.66971e-07
2.66784e-07
1.46489e-07
1.69383e-07
1.95711e-07
2.32979e-07
2.52933e-07
2.23779e-07
2.38339e-07
2.65878e-07
2.59501e-07
2.4462e-07
1.47341e-06
1.26781e-06
8.35664e-07
5.76248e-07
5.79429e-07
4.94635e-07
4.56327e-07
3.55246e-07
2.66446e-07
2.02097e-07
1.80007e-07
1.48481e-07
2.12364e-07
2.17309e-07
2.1585e-07
2.55169e-07
2.76635e-07
2.49515e-07
2.22173e-07
1.654e-06
8.08348e-07
3.24713e-07
4.17245e-07
4.37891e-07
4.73667e-07
3.98374e-07
2.66944e-07
1.65452e-07
1.14692e-07
1.88108e-07
1.98262e-07
2.33933e-07
2.67625e-07
2.24145e-07
1.93966e-07
2.44353e-07
2.40916e-07
2.17472e-07
1.52349e-06
1.31246e-06
8.54826e-07
7.36595e-07
5.92375e-07
5.4834e-07
4.97398e-07
3.9468e-07
2.55671e-07
1.87572e-07
1.65181e-07
1.41386e-07
1.90715e-07
2.23818e-07
1.93953e-07
1.96257e-07
2.4625e-07
2.22054e-07
1.94182e-07
1.99282e-06
8.02955e-07
6.26945e-07
2.6727e-07
3.23548e-07
3.72306e-07
3.61742e-07
2.84451e-07
1.47862e-07
1.3123e-07
1.51639e-07
2.01692e-07
1.49707e-07
1.95343e-07
2.24368e-07
1.78736e-07
1.7808e-07
2.06715e-07
2.03808e-07
1.68423e-06
1.17647e-06
9.37564e-07
6.07871e-07
5.38597e-07
4.97328e-07
4.58012e-07
4.05151e-07
2.8129e-07
2.12099e-07
1.66881e-07
1.50636e-07
1.58645e-07
1.96263e-07
1.99553e-07
1.93564e-07
1.91921e-07
2.00913e-07
1.75379e-07
1.72515e-06
7.60758e-07
2.91635e-07
1.70659e-07
2.82495e-07
3.61049e-07
3.2169e-07
2.44338e-07
1.27678e-07
1.60517e-07
1.45074e-07
1.58384e-07
1.61801e-07
1.62429e-07
2.08724e-07
2.08062e-07
1.5036e-07
1.65497e-07
1.90375e-07
1.42167e-06
1.0124e-06
6.85237e-07
5.18462e-07
4.98815e-07
4.89135e-07
4.35511e-07
3.27373e-07
2.68514e-07
1.88893e-07
1.49217e-07
1.51416e-07
1.48648e-07
1.88088e-07
1.9848e-07
1.99373e-07
1.89914e-07
1.99283e-07
1.82103e-07
7.88824e-07
7.11278e-07
6.56327e-07
3.83165e-07
3.59525e-07
3.65483e-07
4.0239e-07
3.9416e-07
3.91029e-07
4.02915e-07
3.70054e-07
3.81628e-07
4.32781e-07
4.77478e-07
4.42144e-07
3.9859e-07
3.55262e-07
3.56163e-07
3.70628e-07
5.80931e-07
8.42339e-07
4.04099e-07
3.02718e-07
2.19118e-07
2.82186e-07
2.48829e-07
2.45263e-07
2.5604e-07
3.03167e-07
3.35035e-07
3.29741e-07
3.776e-07
4.46365e-07
4.33256e-07
3.75429e-07
3.29787e-07
3.58504e-07
3.19651e-07
8.72104e-07
7.86006e-07
3.10585e-07
1.92403e-07
1.65911e-07
2.42772e-07
2.10869e-07
2.13225e-07
2.07097e-07
2.78533e-07
2.96251e-07
3.11309e-07
3.77711e-07
4.14632e-07
4.05742e-07
3.55504e-07
3.22049e-07
3.46402e-07
3.341e-07
1.15203e-06
8.90903e-07
3.83659e-07
2.04894e-07
2.37082e-07
1.39313e-07
8.60304e-08
2.1658e-07
2.30158e-07
2.91695e-07
3.17349e-07
3.26908e-07
3.80283e-07
4.24627e-07
4.05245e-07
3.36839e-07
3.52067e-07
4.00292e-07
3.52933e-07
1.23093e-06
8.61095e-07
4.20634e-07
2.18059e-07
1.9778e-07
1.34674e-07
9.67535e-08
1.18551e-07
2.10391e-07
2.88822e-07
3.06504e-07
3.09787e-07
3.83626e-07
4.10169e-07
3.69367e-07
3.6109e-07
4.07521e-07
4.08433e-07
3.7661e-07
1.17479e-06
8.94356e-07
3.72208e-07
2.74863e-07
1.71588e-07
1.25127e-07
1.42318e-07
1.08915e-07
2.39248e-07
2.59325e-07
3.13856e-07
3.4814e-07
3.89923e-07
4.19231e-07
4.09778e-07
4.11339e-07
4.2163e-07
4.3272e-07
4.11081e-07
1.13217e-06
9.09613e-07
3.44869e-07
1.04372e-07
1.69695e-07
1.69996e-07
1.08622e-07
1.68631e-07
1.50406e-07
2.9069e-07
2.95545e-07
3.42286e-07
3.70987e-07
4.48896e-07
4.71731e-07
4.65746e-07
4.87894e-07
4.82888e-07
4.33258e-07
1.31879e-06
8.65356e-07
3.0148e-07
1.81028e-07
1.93549e-07
1.53426e-07
1.43521e-07
1.87985e-07
2.16149e-07
3.44969e-07
3.69345e-07
3.81598e-07
4.09e-07
5.07826e-07
5.91557e-07
5.7005e-07
5.29381e-07
4.85402e-07
4.12112e-07
1.30627e-06
8.57415e-07
3.37348e-07
2.48592e-07
2.54492e-07
2.2827e-07
1.2011e-07
1.3573e-07
3.00419e-07
2.88935e-07
4.3241e-07
4.68256e-07
5.26204e-07
5.87218e-07
6.31872e-07
6.68208e-07
5.65425e-07
4.71163e-07
3.96201e-07
1.2254e-06
8.60055e-07
3.47573e-07
3.42928e-07
3.32036e-07
3.71181e-07
2.07519e-07
1.86496e-07
5.03841e-07
4.45841e-07
5.25451e-07
5.91307e-07
5.81669e-07
6.10155e-07
6.22495e-07
6.28737e-07
5.41268e-07
4.16681e-07
3.90768e-07
1.43559e-06
7.64498e-07
3.66974e-07
2.36422e-07
3.71156e-07
4.63651e-07
3.51766e-07
4.37047e-07
4.67851e-07
5.3233e-07
5.94869e-07
6.1699e-07
5.85284e-07
5.72825e-07
5.61371e-07
5.27698e-07
4.5241e-07
4.01363e-07
3.65561e-07
1.39846e-06
9.42309e-07
4.16365e-07
2.50305e-07
5.24634e-07
6.43714e-07
5.9605e-07
6.58321e-07
4.6701e-07
4.92021e-07
5.52212e-07
5.24359e-07
5.38304e-07
5.19036e-07
4.31194e-07
4.20069e-07
4.33711e-07
3.5767e-07
3.74746e-07
1.43153e-06
8.22526e-07
3.43803e-07
5.15917e-07
7.28556e-07
6.84e-07
7.3304e-07
6.87257e-07
4.29351e-07
4.52989e-07
4.25171e-07
4.43435e-07
4.247e-07
3.73902e-07
3.49618e-07
3.26497e-07
3.49742e-07
3.23684e-07
3.01931e-07
1.56365e-06
8.92536e-07
5.6468e-07
4.87792e-07
5.61183e-07
6.05372e-07
6.62269e-07
3.74821e-07
3.64194e-07
3.30528e-07
3.20394e-07
3.21754e-07
2.77149e-07
2.56014e-07
2.54313e-07
2.73057e-07
2.66234e-07
2.70154e-07
2.50939e-07
1.19901e-06
9.98872e-07
6.71495e-07
5.31543e-07
4.81075e-07
5.22826e-07
4.35411e-07
2.42832e-07
2.32937e-07
1.87204e-07
2.02814e-07
2.12343e-07
1.84402e-07
1.74434e-07
2.04482e-07
2.09681e-07
2.27394e-07
2.3318e-07
2.30669e-07
1.83636e-06
9.68231e-07
6.88889e-07
4.7227e-07
3.15798e-07
3.64176e-07
2.22127e-07
1.28726e-07
1.13844e-07
9.51628e-08
1.24742e-07
1.33461e-07
1.72663e-07
1.31806e-07
1.33559e-07
1.45959e-07
1.69814e-07
2.10818e-07
2.20478e-07
1.34194e-06
1.06239e-06
7.00802e-07
3.99395e-07
2.37205e-07