/*--------------------------------*- C++ -*----------------------------------*\
| =========                 |                                                 |
| \\      /  F ield         | foam-extend: Open Source CFD                    |
|  \\    /   O peration     | Version:     3.1                                |
|   \\  /    A nd           | Web:         http://www.extend-project.de       |
|    \\/     M anipulation  |                                                 |
\*---------------------------------------------------------------------------*/
FoamFile
{
    version     2.0;
    format      ascii;
    class       volScalarField;
    location    "345600";
    object      REpsilonEq;
}
// * * * * * * * * * * * * * * * * * * * * * * * * * * * * * * * * * * * * * //

dimensions      [0 0 0 0 0 0 0];

internalField   nonuniform List<scalar> 
23248
(
6.71157e-07
6.71141e-07
6.71038e-07
6.71418e-07
6.72478e-07
6.68971e-07
6.71832e-07
7.32183e-07
1.12854e-06
5.84493e-07
5.84508e-07
5.8495e-07
5.88984e-07
5.88288e-07
5.88596e-07
5.9624e-07
6.45963e-07
8.00811e-07
6.79821e-07
6.79851e-07
6.79783e-07
6.79507e-07
6.78824e-07
6.77588e-07
6.82348e-07
7.49277e-07
1.13945e-06
4.9548e-07
4.95584e-07
4.95612e-07
4.95589e-07
4.95896e-07
4.97167e-07
5.06511e-07
5.66959e-07
7.69721e-07
4.16756e-07
4.16898e-07
4.16926e-07
4.16808e-07
4.16671e-07
4.17652e-07
4.315e-07
5.35439e-07
1.00975e-06
4.5982e-07
4.59753e-07
4.5968e-07
4.59647e-07
4.59644e-07
4.60682e-07
4.6997e-07
5.29396e-07
7.40535e-07
6.55225e-07
6.55347e-07
6.55267e-07
6.54889e-07
6.54161e-07
6.52241e-07
6.52977e-07
7.01825e-07
1.04143e-06
6.08453e-07
6.08412e-07
6.08318e-07
6.08168e-07
6.07864e-07
6.07526e-07
6.09648e-07
6.35043e-07
7.62743e-07
1.04304e-06
1.04291e-06
1.04276e-06
1.04227e-06
1.0422e-06
1.03979e-06
1.03782e-06
1.05771e-06
1.17767e-06
6.23609e-07
6.2356e-07
6.2359e-07
6.23706e-07
6.23781e-07
6.24506e-07
6.28622e-07
6.49953e-07
7.44581e-07
3.72246e-07
3.72308e-07
3.72423e-07
3.73028e-07
3.74993e-07
3.80355e-07
4.0285e-07
5.14923e-07
1.08831e-06
4.6237e-07
4.6239e-07
4.62434e-07
4.62759e-07
4.63751e-07
4.67679e-07
4.83326e-07
5.45293e-07
7.11401e-07
4.54672e-07
4.54451e-07
4.54389e-07
4.54454e-07
4.54264e-07
4.52352e-07
4.65624e-07
5.58294e-07
9.63519e-07
5.91069e-07
5.91094e-07
5.9118e-07
5.91391e-07
5.92036e-07
5.94333e-07
6.04421e-07
6.47811e-07
7.68016e-07
7.65294e-07
7.64849e-07
7.645e-07
7.64158e-07
7.63117e-07
7.7539e-07
7.74903e-07
8.20083e-07
1.05289e-06
6.64259e-07
6.64705e-07
6.64938e-07
6.65229e-07
6.65775e-07
6.67963e-07
6.73718e-07
6.96226e-07
7.63074e-07
7.2317e-07
7.23035e-07
7.23843e-07
7.2213e-07
7.20854e-07
7.19546e-07
7.2821e-07
7.96287e-07
1.04629e-06
6.59667e-07
6.59874e-07
6.60045e-07
6.60206e-07
6.60955e-07
6.63536e-07
6.75183e-07
7.21687e-07
8.40132e-07
8.88061e-07
8.86871e-07
8.88405e-07
8.8826e-07
8.87759e-07
8.81439e-07
8.04203e-07
8.89306e-07
1.17247e-06
7.75595e-07
7.76054e-07
7.76521e-07
7.77084e-07
7.77632e-07
7.7753e-07
7.8607e-07
8.19549e-07
9.02077e-07
6.74464e-07
6.74658e-07
6.76699e-07
6.75718e-07
6.76108e-07
6.8273e-07
8.30829e-07
8.12101e-07
1.15925e-06
8.50412e-07
8.50752e-07
8.5154e-07
8.52073e-07
8.53036e-07
8.54445e-07
8.13667e-07
8.93187e-07
9.59321e-07
1.32318e-06
1.32281e-06
1.32231e-06
1.32134e-06
1.32058e-06
1.35004e-06
1.22351e-06
1.20687e-06
1.56478e-06
1.07017e-06
1.0703e-06
1.0703e-06
1.07047e-06
1.07099e-06
1.07066e-06
1.06945e-06
1.09524e-06
1.11749e-06
1.47962e-06
1.47962e-06
1.47951e-06
1.47883e-06
1.47738e-06
1.46677e-06
1.45587e-06
1.49767e-06
1.73032e-06
1.33262e-06
1.33339e-06
1.3334e-06
1.33347e-06
1.33356e-06
1.33386e-06
1.33688e-06
1.3462e-06
1.33157e-06
2.25957e-06
2.26169e-06
2.26165e-06
2.26059e-06
2.2581e-06
2.25263e-06
2.24594e-06
2.2659e-06
1.9666e-06
1.58819e-06
1.58777e-06
1.5877e-06
1.58773e-06
1.58782e-06
1.58822e-06
1.59008e-06
1.59205e-06
1.46047e-06
1.6676e-06
1.66381e-06
1.66387e-06
1.66345e-06
1.66245e-06
1.66167e-06
1.67421e-06
1.79334e-06
2.29898e-06
1.47656e-06
1.47651e-06
1.4761e-06
1.47525e-06
1.47335e-06
1.46949e-06
1.46378e-06
1.47158e-06
1.55722e-06
1.98835e-06
1.98193e-06
1.98166e-06
1.98032e-06
1.97743e-06
1.97316e-06
1.98217e-06
2.10188e-06
2.32106e-06
1.32441e-06
1.32359e-06
1.32237e-06
1.31976e-06
1.31362e-06
1.29928e-06
1.26947e-06
1.25842e-06
1.43483e-06
1.74211e-06
1.74261e-06
1.74194e-06
1.74049e-06
1.73786e-06
1.73589e-06
1.7509e-06
1.88432e-06
2.23284e-06
1.25672e-06
1.25666e-06
1.25517e-06
1.25152e-06
1.2432e-06
1.22593e-06
1.19169e-06
1.17647e-06
1.38377e-06
1.18564e-06
1.1853e-06
1.18419e-06
1.18189e-06
1.17787e-06
1.17597e-06
1.21058e-06
1.46217e-06
2.18728e-06
1.25364e-06
1.25302e-06
1.25146e-06
1.24772e-06
1.23945e-06
1.22259e-06
1.19726e-06
1.21105e-06
1.31066e-06
1.33343e-06
1.33382e-06
1.33306e-06
1.33112e-06
1.32725e-06
1.32163e-06
1.32577e-06
1.41927e-06
1.87164e-06
1.09349e-06
1.09223e-06
1.09087e-06
1.08774e-06
1.08061e-06
1.06535e-06
1.03943e-06
1.04554e-06
1.28419e-06
6.30408e-07
6.30181e-07
6.29708e-07
6.31232e-07
6.4751e-07
6.35179e-07
6.37562e-07
7.2712e-07
1.17742e-06
3.99713e-07
3.97804e-07
3.82155e-07
3.80425e-07
4.2167e-07
4.06418e-07
4.59476e-07
5.99876e-07
1.45072e-06
5.67992e-07
5.66136e-07
5.58045e-07
5.64281e-07
5.85216e-07
5.69327e-07
5.86314e-07
7.36989e-07
1.43999e-06
6.45738e-07
6.50401e-07
6.38118e-07
6.36857e-07
6.35234e-07
6.52582e-07
6.69475e-07
7.89357e-07
1.47834e-06
6.2233e-07
6.22721e-07
6.20284e-07
6.16648e-07
6.15879e-07
6.18327e-07
6.39041e-07
7.89697e-07
1.4036e-06
8.22459e-07
8.21051e-07
8.17118e-07
8.1707e-07
8.19113e-07
8.20433e-07
8.37237e-07
9.75862e-07
1.50211e-06
3.85895e-07
3.85483e-07
3.85924e-07
3.87062e-07
3.91241e-07
4.08435e-07
4.85249e-07
7.83517e-07
1.6934e-06
9.03806e-07
9.03671e-07
9.03607e-07
9.00413e-07
8.9972e-07
8.9775e-07
9.14352e-07
1.06216e-06
1.70577e-06
7.80859e-07
7.80842e-07
7.80347e-07
7.79096e-07
7.78753e-07
7.82757e-07
8.27385e-07
1.02829e-06
1.69803e-06
1.13957e-06
1.13954e-06
1.13927e-06
1.14744e-06
1.10115e-06
1.1196e-06
1.1428e-06
1.27396e-06
1.73942e-06
1.50276e-06
1.50265e-06
1.50162e-06
1.49946e-06
1.48212e-06
1.48894e-06
1.48461e-06
1.55762e-06
1.92994e-06
1.3514e-06
1.35102e-06
1.35046e-06
1.34919e-06
1.34619e-06
1.34247e-06
1.34977e-06
1.46337e-06
1.96062e-06
9.55729e-07
9.53689e-07
9.53107e-07
9.51967e-07
9.50196e-07
9.50179e-07
9.641e-07
1.11779e-06
1.69653e-06
1.21143e-06
1.21335e-06
1.21276e-06
1.21118e-06
1.20743e-06
1.20182e-06
1.21066e-06
1.28763e-06
1.67549e-06
1.15121e-06
1.15088e-06
1.15011e-06
1.14835e-06
1.14494e-06
1.14039e-06
1.1453e-06
1.22507e-06
1.64189e-06
8.97723e-07
8.97541e-07
8.96527e-07
8.94343e-07
8.90427e-07
8.86343e-07
8.98636e-07
1.01475e-06
1.48189e-06
5.74339e-07
5.73937e-07
5.72989e-07
5.71343e-07
5.69473e-07
5.70987e-07
6.08951e-07
8.06082e-07
1.38641e-06
9.1287e-07
9.12587e-07
9.11568e-07
9.09207e-07
9.04601e-07
9.00597e-07
9.12142e-07
1.01857e-06
1.42877e-06
7.51419e-07
7.51317e-07
7.50261e-07
7.48047e-07
7.44548e-07
7.4337e-07
7.69525e-07
9.31433e-07
1.44929e-06
5.77375e-07
5.77136e-07
5.77209e-07
5.80545e-07
5.80623e-07
5.84116e-07
5.96279e-07
6.59074e-07
8.36533e-07
4.70547e-07
4.71948e-07
4.75524e-07
4.76616e-07
4.57169e-07
4.82916e-07
5.15649e-07
5.62611e-07
7.51917e-07
6.02827e-07
6.00569e-07
6.1374e-07
6.11279e-07
6.17281e-07
6.02945e-07
6.11651e-07
7.08345e-07
9.45147e-07
5.65264e-07
5.64538e-07
5.61317e-07
5.54416e-07
5.5393e-07
5.61548e-07
5.8275e-07
6.88389e-07
9.84956e-07
5.64274e-07
5.64722e-07
5.66126e-07
5.67378e-07
5.67756e-07
5.70752e-07
5.93219e-07
7.12217e-07
1.08888e-06
4.61735e-07
4.62139e-07
4.62895e-07
4.63265e-07
4.65609e-07
4.75434e-07
5.16326e-07
6.87439e-07
1.12834e-06
7.08019e-07
7.0877e-07
7.094e-07
7.10371e-07
7.13127e-07
7.2256e-07
7.59344e-07
9.02211e-07
1.25825e-06
3.68569e-07
3.69101e-07
3.69665e-07
3.71011e-07
3.75582e-07
3.91353e-07
4.50485e-07
6.58589e-07
1.10171e-06
6.76327e-07
6.76701e-07
6.77025e-07
6.77797e-07
6.80551e-07
6.89404e-07
7.25293e-07
8.63811e-07
1.21096e-06
6.56137e-07
6.58613e-07
6.5909e-07
6.62192e-07
6.67883e-07
6.78886e-07
7.20234e-07
8.77092e-07
1.13607e-06
8.78155e-07
8.77844e-07
8.77826e-07
8.78078e-07
8.78979e-07
8.81292e-07
8.97821e-07
9.85439e-07
1.19587e-06
8.94344e-07
8.94354e-07
8.93874e-07
8.92635e-07
8.89989e-07
8.85865e-07
8.85884e-07
9.43656e-07
1.1607e-06
7.65868e-07
7.6575e-07
7.64534e-07
7.61518e-07
7.54696e-07
7.40475e-07
7.20676e-07
7.62067e-07
1.06397e-06
8.66925e-07
8.66622e-07
8.65222e-07
8.61737e-07
8.53817e-07
8.37128e-07
8.08353e-07
8.08013e-07
1.02354e-06
9.33101e-07
9.33125e-07
9.31839e-07
9.28629e-07
9.21414e-07
9.05952e-07
8.80621e-07
8.79071e-07
1.0021e-06
8.02741e-07
8.01957e-07
8.00365e-07
7.96809e-07
7.89402e-07
7.7642e-07
7.6286e-07
7.99871e-07
9.59461e-07
5.92595e-07
5.91709e-07
5.89786e-07
5.85566e-07
5.77087e-07
5.63433e-07
5.59798e-07
6.52709e-07
9.32296e-07
7.81687e-07
7.80697e-07
7.78988e-07
7.75158e-07
7.6726e-07
7.52774e-07
7.35521e-07
7.65497e-07
9.49973e-07
6.57838e-07
6.57045e-07
6.55459e-07
6.51977e-07
6.45164e-07
6.34629e-07
6.33447e-07
7.18076e-07
9.83897e-07
7.00849e-07
6.88923e-07
6.70577e-07
6.87511e-07
7.00826e-07
7.35507e-07
7.40204e-07
7.07928e-07
6.13653e-07
7.30414e-07
6.86166e-07
7.58037e-07
6.44591e-07
7.7163e-07
6.58968e-07
6.19084e-07
5.90726e-07
5.43885e-07
6.3929e-07
6.16139e-07
6.33684e-07
6.46019e-07
6.37412e-07
5.76844e-07
5.8179e-07
5.21337e-07
5.21714e-07
5.51235e-07
5.91179e-07
6.38805e-07
6.3108e-07
6.66478e-07
6.43546e-07
5.31348e-07
5.30628e-07
5.53608e-07
5.61401e-07
5.7225e-07
5.98273e-07
5.97951e-07
7.04511e-07
6.5307e-07
6.06962e-07
6.74668e-07
6.43012e-07
5.92126e-07
5.70095e-07
5.88871e-07
6.60073e-07
6.51862e-07
6.53199e-07
7.41133e-07
6.97036e-07
6.27965e-07
6.03725e-07
5.97979e-07
5.61726e-07
5.73761e-07
5.52745e-07
5.83091e-07
5.34691e-07
5.82318e-07
4.90631e-07
4.34146e-07
4.3688e-07
4.7985e-07
5.77907e-07
6.69033e-07
5.83239e-07
6.08052e-07
6.90735e-07
5.8866e-07
5.27118e-07
5.92944e-07
5.50848e-07
5.68002e-07
5.63004e-07
5.68234e-07
6.54536e-07
5.09709e-07
5.27656e-07
6.36919e-07
6.23731e-07
5.5556e-07
5.08304e-07
6.42732e-07
6.01328e-07
7.50818e-07
5.76325e-07
6.21811e-07
6.94198e-07
6.34045e-07
6.58165e-07
5.68523e-07
6.03158e-07
4.85006e-07
5.19053e-07
5.83123e-07
5.6361e-07
5.58953e-07
4.6095e-07
5.09968e-07
5.25898e-07
5.4756e-07
4.782e-07
5.19743e-07
7.03196e-07
5.78446e-07
6.26911e-07
6.54172e-07
5.7843e-07
5.39418e-07
5.99963e-07
5.87441e-07
5.13181e-07
5.64679e-07
5.53616e-07
5.53722e-07
5.29752e-07
5.62887e-07
5.48477e-07
5.47521e-07
6.54654e-07
6.30373e-07
6.69972e-07
6.37825e-07
6.09308e-07
5.54732e-07
7.62622e-07
7.00002e-07
6.59213e-07
6.31543e-07
5.77827e-07
4.29731e-07
4.37609e-07
5.5744e-07
5.74127e-07
5.30624e-07
4.84257e-07
7.01576e-07
7.73403e-07
5.09598e-07
5.80629e-07
4.38774e-07
4.82491e-07
6.44487e-07
6.6498e-07
6.92196e-07
7.10147e-07
6.47707e-07
5.47055e-07
6.26623e-07
5.20172e-07
5.45524e-07
5.93195e-07
5.66682e-07
4.95979e-07
5.41215e-07
5.74769e-07
6.45153e-07
8.22507e-07
5.84038e-07
5.35871e-07
5.50514e-07
5.47202e-07
5.55247e-07
6.15424e-07
7.80484e-07
7.26102e-07
6.50394e-07
5.77468e-07
4.02554e-07
4.72937e-07
5.741e-07
5.65009e-07
6.15176e-07
6.93975e-07
7.23269e-07
6.74041e-07
5.2563e-07
4.9536e-07
5.28187e-07
4.11713e-07
4.85621e-07
6.38512e-07
7.34926e-07
6.70742e-07
6.99075e-07
5.72799e-07
5.73394e-07
5.28052e-07
5.12691e-07
5.37054e-07
5.41907e-07
5.78212e-07
5.67305e-07
6.76707e-07
6.50929e-07
6.27772e-07
5.705e-07
5.49778e-07
4.51504e-07
4.4346e-07
5.20425e-07
6.3462e-07
6.49203e-07
7.72779e-07
6.97884e-07
7.05323e-07
4.6185e-07
5.68193e-07
5.63328e-07
5.77178e-07
7.6419e-07
7.88672e-07
6.98778e-07
6.06842e-07
5.23673e-07
4.71575e-07
5.3422e-07
3.5567e-07
3.37742e-07
5.54928e-07
6.32526e-07
7.29373e-07
6.98106e-07
7.14981e-07
6.6409e-07
5.22723e-07
5.1393e-07
6.06221e-07
6.24729e-07
6.11647e-07
6.31979e-07
6.7023e-07
6.26167e-07
5.42329e-07
4.97531e-07
4.56307e-07
5.50756e-07
4.10156e-07
3.93175e-07
5.14202e-07
6.35814e-07
6.26734e-07
6.0119e-07
7.10769e-07
5.7505e-07
6.0902e-07
5.8337e-07
6.44709e-07
8.71842e-07
7.32667e-07
6.13485e-07
6.83471e-07
5.00098e-07
4.71366e-07
3.77452e-07
4.82151e-07
3.3177e-07
3.51446e-07
6.22709e-07
5.48871e-07
6.38328e-07
6.61723e-07
7.73375e-07
5.25283e-07
5.99889e-07
6.93973e-07
5.56344e-07
6.38536e-07
6.73409e-07
6.08981e-07
6.05366e-07
5.63656e-07
3.9119e-07
3.30892e-07
3.56904e-07
5.25589e-07
3.53249e-07
3.89848e-07
5.45913e-07
6.33274e-07
5.71042e-07
5.88383e-07
5.61631e-07
5.65533e-07
6.36752e-07
6.25901e-07
7.06325e-07
6.30354e-07
6.92029e-07
4.77072e-07
5.41716e-07
4.13872e-07
3.37904e-07
3.77211e-07
4.83236e-07
2.91153e-07
4.07844e-07
5.87368e-07
4.9037e-07
4.99039e-07
6.2102e-07
6.16285e-07
6.63239e-07
5.43798e-07
6.43169e-07
5.54766e-07
7.1407e-07
5.01127e-07
5.44602e-07
3.84116e-07
3.15951e-07
3.49989e-07
2.95275e-07
3.77797e-07
5.43077e-07
3.86337e-07
4.81204e-07
5.92374e-07
6.86939e-07
6.27631e-07
4.98946e-07
5.37518e-07
5.81396e-07
6.6492e-07
5.53856e-07
6.39358e-07
4.88714e-07
5.50633e-07
4.47471e-07
4.04685e-07
3.76975e-07
3.73214e-07
3.80989e-07
3.58688e-07
3.37894e-07
5.5464e-07
5.04192e-07
4.77633e-07
5.10925e-07
6.23801e-07
5.49012e-07
5.65368e-07
5.64054e-07
5.48569e-07
3.95249e-07
4.33338e-07
3.38435e-07
3.8646e-07
3.37059e-07
2.85494e-07
3.43138e-07
4.24675e-07
4.74852e-07
3.21425e-07
4.94249e-07
5.19269e-07
6.34382e-07
6.98441e-07
4.61787e-07
5.08427e-07
6.05146e-07
5.14045e-07
6.25974e-07
3.87628e-07
5.20603e-07
4.64127e-07
4.04695e-07
4.06957e-07
3.89325e-07
3.95565e-07
3.46565e-07
3.54066e-07
4.66257e-07
5.19181e-07
4.56201e-07
5.82388e-07
5.38509e-07
4.4234e-07
4.74294e-07
5.41307e-07
4.75623e-07
5.02299e-07
4.0077e-07
3.0892e-07
3.04547e-07
2.61368e-07
2.96923e-07
3.16515e-07
3.16815e-07
4.0402e-07
4.28894e-07
4.59348e-07
5.79589e-07
4.95655e-07
5.49158e-07
6.10589e-07
4.14653e-07
4.94852e-07
4.18186e-07
5.74253e-07
3.66599e-07
4.5598e-07
3.50747e-07
3.93146e-07
4.16083e-07
3.70086e-07
3.97936e-07
3.94898e-07
4.02629e-07
4.0681e-07
4.3905e-07
4.79455e-07
4.35544e-07
5.43125e-07
6.4412e-07
4.14373e-07
4.48044e-07
5.5537e-07
4.12e-07
3.78032e-07
2.68674e-07
2.41142e-07
1.9607e-07
3.0427e-07
3.34932e-07
2.9672e-07
3.53026e-07
4.03417e-07
3.26629e-07
4.33818e-07
4.4221e-07
5.53117e-07
5.1504e-07
5.83915e-07
4.71109e-07
3.37897e-07
4.8211e-07
3.24516e-07
4.31332e-07
3.12489e-07
3.19127e-07
3.03202e-07
4.08178e-07
4.42696e-07
3.34726e-07
4.29901e-07
3.88352e-07
3.7903e-07
4.41948e-07
4.83867e-07
5.25544e-07
4.6821e-07
6.07658e-07
3.64167e-07
3.53374e-07
3.18922e-07
4.05732e-07
2.62928e-07
2.03367e-07
2.18905e-07
2.16411e-07
2.824e-07
3.12772e-07
3.10856e-07
4.4353e-07
5.03084e-07
3.88396e-07
4.32436e-07
4.83077e-07
4.9862e-07
5.41719e-07
5.47371e-07
3.62514e-07
3.9554e-07
2.91123e-07
4.16161e-07
2.71136e-07
2.95753e-07
2.61599e-07
3.07095e-07
3.36445e-07
3.6918e-07
3.99874e-07
3.4709e-07
4.74423e-07
2.61054e-07
3.97673e-07
4.52869e-07
4.63718e-07
5.07397e-07
5.54824e-07
3.25422e-07
3.04588e-07
3.17935e-07
2.04675e-07
2.54566e-07
2.21619e-07
1.8003e-07
2.18023e-07
2.40582e-07
2.30368e-07
3.56581e-07
3.89161e-07
3.64203e-07
4.37446e-07
4.72746e-07
5.54601e-07
5.43876e-07
5.5478e-07
5.90944e-07
4.08437e-07
2.74967e-07
3.01011e-07
2.2383e-07
2.36105e-07
2.16307e-07
2.25255e-07
2.52705e-07
2.43628e-07
2.99607e-07
3.42951e-07
4.32455e-07
3.45368e-07
4.06155e-07
3.59353e-07
4.51455e-07
4.41532e-07
5.20352e-07
6.24054e-07
3.16876e-07
2.65998e-07
2.4622e-07
1.78675e-07
1.79202e-07
2.17095e-07
1.83337e-07
1.77528e-07
2.5413e-07
2.78529e-07
2.51023e-07
4.21398e-07
4.30815e-07
4.31161e-07
5.74829e-07
5.77357e-07
5.61487e-07
6.08365e-07
6.20335e-07
3.27995e-07
3.09216e-07
2.23341e-07
1.63268e-07
1.9294e-07
1.98609e-07
1.72691e-07
1.81292e-07
2.38281e-07
2.14003e-07
3.10054e-07
3.43433e-07
4.10284e-07
3.04664e-07
3.95715e-07
4.58874e-07
4.82267e-07
5.3489e-07
6.20457e-07
3.16616e-07
2.64563e-07
2.69875e-07
2.16367e-07
1.6068e-07
1.62767e-07
1.75611e-07
2.06022e-07
2.0482e-07
2.83273e-07
3.61277e-07
4.01561e-07
4.28883e-07
4.3848e-07
5.22666e-07
5.51638e-07
5.48531e-07
6.58257e-07
7.41829e-07
3.69425e-07
2.96701e-07
2.15542e-07
1.79346e-07
1.40644e-07
1.68646e-07
1.56389e-07
1.50618e-07
1.6815e-07
2.32009e-07
2.28418e-07
3.55578e-07
4.03315e-07
3.67079e-07
3.89657e-07
5.26712e-07
5.37929e-07
5.59744e-07
6.34822e-07
3.2668e-07
3.29066e-07
2.63446e-07
2.65651e-07
1.91837e-07
1.65279e-07
1.71159e-07
2.03769e-07
2.60943e-07
3.25334e-07
3.88023e-07
4.7399e-07
5.14649e-07
5.35918e-07
6.2464e-07
5.82058e-07
5.74958e-07
6.69014e-07
7.32942e-07
3.58675e-07
3.35443e-07
2.77353e-07
1.71101e-07
1.77293e-07
1.28484e-07
1.61774e-07
1.55176e-07
1.70822e-07
2.25127e-07
3.07106e-07
3.83525e-07
4.4021e-07
4.4171e-07
4.75174e-07
5.55509e-07
5.78449e-07
5.92456e-07
6.27867e-07
3.21769e-07
3.51913e-07
3.32293e-07
2.49895e-07
2.53553e-07
2.02851e-07
1.95182e-07
2.09134e-07
2.814e-07
3.53859e-07
4.45413e-07
5.05656e-07
5.5722e-07
5.83661e-07
6.19394e-07
5.8551e-07
5.84673e-07
6.61229e-07
7.18936e-07
3.3189e-07
3.58639e-07
3.29389e-07
2.5e-07
1.61998e-07
2.13851e-07
1.75528e-07
2.03247e-07
2.24015e-07
2.90417e-07
3.56492e-07
4.48076e-07
4.93638e-07
5.09786e-07
5.42316e-07
5.92245e-07
6.33173e-07
5.73453e-07
6.24548e-07
3.66088e-07
3.2157e-07
3.52097e-07
3.41048e-07
3.04669e-07
2.66532e-07
2.17526e-07
2.31655e-07
2.94199e-07
3.77886e-07
5.06109e-07
5.56545e-07
5.8534e-07
5.81994e-07
7.09453e-07
5.50866e-07
5.50149e-07
6.69641e-07
7.30987e-07
3.68189e-07
3.14214e-07
3.30838e-07
3.13248e-07
2.76798e-07
2.36808e-07
2.80496e-07
2.70472e-07
3.60985e-07
3.05475e-07
4.22082e-07
5.06927e-07
5.37414e-07
5.53905e-07
5.67111e-07
5.77984e-07
5.62874e-07
5.70246e-07
6.16991e-07
1.10038e-06
1.52505e-06
1.12733e-06
9.41281e-07
1.02265e-06
8.79552e-07
8.02279e-07
6.99367e-07
6.29545e-07
5.04668e-07
5.5108e-07
5.95881e-07
7.27951e-07
6.64539e-07
6.47336e-07
5.98027e-07
6.15648e-07
6.94369e-07
6.89126e-07
1.21848e-06
1.1318e-06
9.11962e-07
7.85092e-07
9.38241e-07
9.36064e-07
7.91284e-07
8.94581e-07
8.13219e-07
6.75254e-07
7.33158e-07
6.28075e-07
8.40054e-07
7.45736e-07
5.9479e-07
5.30588e-07
6.0066e-07
5.78378e-07
5.65181e-07
1.42654e-06
1.30322e-06
9.23043e-07
8.60888e-07
1.05127e-06
9.59629e-07
9.35367e-07
8.07288e-07
8.66623e-07
7.50226e-07
5.90632e-07
6.57584e-07
5.72026e-07
5.91696e-07
5.08994e-07
5.17119e-07
5.92318e-07
6.33725e-07
6.67634e-07
1.02065e-06
9.61186e-07
7.93638e-07
8.22311e-07
9.78851e-07
8.28188e-07
7.10941e-07
8.6981e-07
9.23943e-07
7.26132e-07
5.58046e-07
5.41318e-07
6.8165e-07
5.88013e-07
4.68907e-07
7.62861e-07
5.78861e-07
5.40365e-07
5.4701e-07
1.09041e-06
1.39089e-06
9.92547e-07
9.21937e-07
8.51017e-07
7.0148e-07
9.67333e-07
5.64328e-07
9.47859e-07
8.53049e-07
8.03939e-07
6.19937e-07
7.26039e-07
6.00259e-07
5.16256e-07
5.98878e-07
5.61614e-07
5.93422e-07
6.48435e-07
1.00104e-06
9.27172e-07
8.48007e-07
8.06961e-07
7.76416e-07
7.92116e-07
7.32659e-07
7.55404e-07
7.82975e-07
7.82609e-07
9.64131e-07
5.69243e-07
6.50607e-07
6.50868e-07
5.35281e-07
6.37362e-07
5.93989e-07
6.01701e-07
5.00617e-07
1.31567e-06
1.1697e-06
7.96292e-07
8.1756e-07
8.98741e-07
8.45701e-07
6.97497e-07
7.90814e-07
7.54172e-07
6.37745e-07
6.72698e-07
6.69302e-07
6.53194e-07
6.24115e-07
5.83108e-07
6.11428e-07
5.69908e-07
6.63516e-07
6.47252e-07
1.00152e-06
9.32789e-07
8.50959e-07
7.58174e-07
7.61608e-07
8.05583e-07
7.31035e-07
6.89691e-07
6.6462e-07
7.13594e-07
6.88379e-07
6.5993e-07
6.59943e-07
5.06356e-07
5.64847e-07
6.46746e-07
6.46203e-07
7.48625e-07
4.97627e-07
1.08542e-06
1.19101e-06
8.98553e-07
8.77122e-07
8.54824e-07
7.62696e-07
6.82562e-07
7.23335e-07
7.9024e-07
6.7947e-07
7.17693e-07
8.07252e-07
6.24371e-07
4.75488e-07
5.37898e-07
5.72043e-07
5.66873e-07
5.20197e-07
5.38403e-07
1.05338e-06
9.4008e-07
8.47252e-07
7.9467e-07
7.75143e-07
7.52751e-07
7.08542e-07
6.9473e-07
6.46691e-07
6.70108e-07
7.20243e-07
7.89363e-07
6.60352e-07
5.07825e-07
6.0957e-07
6.81664e-07
6.34503e-07
5.55493e-07
4.4925e-07
8.55658e-07
1.48378e-06
1.02659e-06
9.67136e-07
8.92687e-07
8.21248e-07
8.51164e-07
7.82954e-07
7.70106e-07
7.17226e-07
7.58357e-07
7.41283e-07
5.63193e-07
6.90418e-07
5.01483e-07
7.69282e-07
5.27915e-07
4.2831e-07
4.9683e-07
9.20448e-07
9.51765e-07
8.02161e-07
8.19503e-07
7.73025e-07
7.30095e-07
6.90743e-07
6.95129e-07
6.6916e-07
6.4116e-07
7.72181e-07
7.90031e-07
5.6605e-07
5.84893e-07
5.82982e-07
7.95028e-07
5.64092e-07
3.845e-07
4.05782e-07
1.42778e-06
1.18321e-06
9.52531e-07
1.01136e-06
9.22015e-07
8.46506e-07
7.81544e-07
8.17324e-07
8.33087e-07
7.54233e-07
7.01533e-07
6.43661e-07
6.54798e-07
6.231e-07
6.78734e-07
5.63565e-07
3.77393e-07
3.95411e-07
4.64943e-07
9.91025e-07
8.87708e-07
7.61743e-07
7.97113e-07
7.75563e-07
7.44288e-07
7.26964e-07
7.02282e-07
7.08578e-07
7.10715e-07
7.45472e-07
6.2861e-07
5.91552e-07
5.53123e-07
6.93669e-07
6.66499e-07
3.50227e-07
4.02534e-07
4.18275e-07
1.21581e-06
1.11569e-06
9.73083e-07
1.07083e-06
8.8152e-07
8.25105e-07
8.73561e-07
8.0948e-07
8.06825e-07
7.22004e-07
8.14736e-07
7.91655e-07
7.06313e-07
7.17574e-07
6.66465e-07
4.38261e-07
3.94983e-07
3.84927e-07
4.52007e-07
9.85356e-07
8.94255e-07
7.49414e-07
7.70494e-07
8.15036e-07
7.74705e-07
7.38617e-07
7.72706e-07
7.14084e-07
6.88991e-07
6.84936e-07
7.76533e-07
5.85801e-07
6.14355e-07
7.08034e-07
4.82523e-07
4.0483e-07
4.43245e-07
4.73927e-07
1.28178e-06
1.03969e-06
9.62625e-07
9.9777e-07
9.68095e-07
8.79797e-07
8.62671e-07
8.84688e-07
7.02224e-07
6.5869e-07
8.21987e-07
7.80441e-07
7.1101e-07
6.48975e-07
5.67772e-07
4.86254e-07
4.59859e-07
4.65732e-07
5.22381e-07
1.06328e-06
8.66246e-07
7.92157e-07
7.71245e-07
8.17492e-07
7.98563e-07
7.6803e-07
7.42332e-07
7.46015e-07
7.48415e-07
7.26357e-07
6.95478e-07
5.58033e-07
6.17953e-07
5.55621e-07
4.29192e-07
4.71922e-07
5.14025e-07
5.05339e-07
1.24666e-06
1.12634e-06
8.80334e-07
1.13048e-06
1.01184e-06
9.80849e-07
1.11566e-06
9.10504e-07
9.07241e-07
7.74972e-07
9.26888e-07
7.54279e-07
8.41317e-07
7.28087e-07
5.91113e-07
5.92167e-07
5.2408e-07
5.19454e-07
5.51085e-07
1.08384e-06
8.99328e-07
8.28352e-07
8.38962e-07
7.8993e-07
8.33209e-07
8.48186e-07
8.16365e-07
7.53371e-07
7.22417e-07
7.27159e-07
6.58312e-07
7.09356e-07
6.15355e-07
6.02448e-07
4.39508e-07
5.54029e-07
5.71141e-07
5.02063e-07
1.3642e-06
1.14328e-06
9.38782e-07
9.55756e-07
1.06217e-06
1.01256e-06
9.55437e-07
1.03652e-06
8.70788e-07
8.42569e-07
8.18811e-07
7.21333e-07
7.09671e-07
6.6734e-07
5.02281e-07
6.0749e-07
5.89517e-07
5.48179e-07
5.17603e-07
1.18652e-06
9.16104e-07
8.81618e-07
8.76615e-07
8.41786e-07
8.96519e-07
8.81676e-07
8.54404e-07
7.9832e-07
7.60344e-07
7.08534e-07
6.38735e-07
6.04645e-07
6.08568e-07
4.64997e-07
5.08976e-07
5.63183e-07
5.7762e-07
5.30192e-07
1.4032e-06
1.31622e-06
1.18032e-06
9.71928e-07
1.20386e-06
1.09412e-06
1.01945e-06
9.96875e-07
8.71585e-07
6.90568e-07
8.73008e-07
7.48118e-07
7.98822e-07
6.64285e-07
5.03087e-07
5.85093e-07
6.07908e-07
5.01768e-07
3.95873e-07
1.32169e-06
1.04042e-06
9.86874e-07
1.02853e-06
9.59118e-07
1.02792e-06
9.20597e-07
8.66898e-07
8.04571e-07
7.62384e-07
6.86741e-07
6.39123e-07
7.41026e-07
6.30181e-07
5.06038e-07
5.52511e-07
5.70029e-07
5.3162e-07
4.05155e-07
1.62257e-06
1.58291e-06
1.56341e-06
1.39461e-06
1.32805e-06
1.2659e-06
1.23008e-06
1.11108e-06
8.7079e-07
8.78729e-07
8.79138e-07
7.10812e-07
6.81287e-07
6.19227e-07
5.25777e-07
5.23692e-07
5.33556e-07
4.56562e-07
3.72455e-07
1.54033e-06
1.2346e-06
1.12666e-06
1.20426e-06
1.09338e-06
1.03987e-06
1.04037e-06
9.56222e-07
8.43626e-07
7.22593e-07
7.27789e-07
7.06748e-07
7.45055e-07
6.40236e-07
4.36868e-07
4.96328e-07
5.34602e-07
5.27873e-07
4.46811e-07
2.25167e-06
1.90414e-06
1.78908e-06
1.92858e-06
1.49949e-06
1.56574e-06
1.32262e-06
1.17178e-06
1.08967e-06
1.06515e-06
1.00138e-06
6.27749e-07
5.72553e-07
6.6217e-07
5.82252e-07
5.38997e-07
5.47318e-07
4.96941e-07
3.83573e-07
1.71058e-06
1.36139e-06
1.33277e-06
1.21745e-06
1.19491e-06
1.12821e-06
1.13635e-06
1.02911e-06
8.39345e-07
7.51116e-07
7.87943e-07
6.68201e-07
6.33882e-07
5.67798e-07
5.0578e-07
5.08064e-07
4.87673e-07
5.03e-07
4.39566e-07
2.06663e-06
2.31612e-06
2.09027e-06
2.26455e-06
1.75876e-06
1.76012e-06
1.4484e-06
1.26485e-06
1.16833e-06
9.77037e-07
9.7413e-07
6.5542e-07
5.78798e-07
6.32968e-07
6.02775e-07
5.93342e-07
5.48242e-07
5.04326e-07
3.93656e-07
1.55805e-06
1.38023e-06
1.45639e-06
1.48081e-06
1.41132e-06
1.29312e-06
1.18988e-06
1.0417e-06
8.94604e-07
8.07379e-07
7.93564e-07
6.31504e-07
6.49174e-07
5.48024e-07
5.4361e-07
4.56186e-07
5.2263e-07
4.99607e-07
4.42228e-07
1.80832e-06
2.07912e-06
2.28903e-06
2.26151e-06
2.07091e-06
1.57483e-06
1.59174e-06
1.26472e-06
1.21942e-06
9.56516e-07
8.63213e-07
7.23002e-07
6.58438e-07
5.5591e-07
5.46115e-07
5.46324e-07
5.26462e-07
4.64674e-07
3.77089e-07
1.60587e-06
1.04838e-06
1.4739e-06
1.64747e-06
1.55149e-06
1.44609e-06
1.30238e-06
1.12339e-06
9.99131e-07
8.53811e-07
8.11726e-07
6.92766e-07
6.84461e-07
6.07544e-07
5.04315e-07
4.67878e-07
5.04596e-07
4.91009e-07
4.25672e-07
1.94839e-06
2.37396e-06
2.27835e-06
2.35394e-06
2.02967e-06
1.90938e-06
1.80599e-06
1.50125e-06
1.16565e-06
1.03976e-06
9.04468e-07
7.83405e-07
6.46992e-07
5.55369e-07
5.24338e-07
5.31682e-07
5.16791e-07
4.45495e-07
3.65423e-07
1.74375e-06
1.18558e-06
1.5682e-06
1.66065e-06
1.65296e-06
1.59925e-06
1.41077e-06
1.21151e-06
1.02141e-06
8.98223e-07
8.76196e-07
7.45939e-07
6.9483e-07
6.82464e-07
5.72238e-07
4.41985e-07
4.92719e-07
4.57535e-07
4.10872e-07
1.45695e-06
1.70144e-06
2.08913e-06
2.00509e-06
1.9736e-06
1.9113e-06
1.8029e-06
1.64021e-06
1.40032e-06
1.13769e-06
1.03785e-06
9.04255e-07
6.53879e-07
7.00537e-07
6.18145e-07
5.25899e-07
5.15457e-07
4.71733e-07
3.94718e-07
1.92195e-06
1.25836e-06
9.58883e-07
1.37e-06
1.54896e-06
1.51493e-06
1.42868e-06
1.33306e-06
1.19332e-06
9.56582e-07
9.44439e-07
7.83137e-07
6.95018e-07
7.06904e-07
6.2719e-07
4.00123e-07
4.43934e-07
4.69421e-07
4.12535e-07
1.84247e-06
1.26959e-06
1.71848e-06
1.63502e-06
1.88498e-06
1.42906e-06
1.58515e-06
1.96641e-06
1.56672e-06
1.25953e-06
1.0568e-06
9.18283e-07
7.18774e-07
6.39239e-07
7.20736e-07
5.43413e-07
4.93169e-07
5.38203e-07
4.4696e-07
2.04801e-06
1.14294e-06
8.99924e-07
1.09852e-06
1.34295e-06
1.33065e-06
1.39865e-06
1.40684e-06
1.29637e-06
1.08097e-06
9.79586e-07
8.76617e-07
6.98861e-07
6.52538e-07
6.9195e-07
4.1856e-07
3.4318e-07
4.25979e-07
4.20507e-07
1.28596e-06
1.31972e-06
1.05009e-06
1.14699e-06
1.20036e-06
7.09621e-07
6.62565e-07
5.82333e-07
4.84276e-07
5.13034e-07
5.2688e-07
5.53143e-07
6.11815e-07
7.49899e-07
7.7938e-07
6.72378e-07
5.64647e-07
6.72291e-07
6.65498e-07
9.43882e-07
2.30134e-06
1.30662e-06
1.24848e-06
8.87904e-07
6.29088e-07
5.78226e-07
4.22356e-07
3.26111e-07
4.28983e-07
5.20207e-07
5.69039e-07
6.25744e-07
7.22243e-07
7.49302e-07
6.83855e-07
6.3145e-07
6.51563e-07
7.20955e-07
1.84496e-06
2.35618e-06
1.26229e-06
9.47188e-07
6.30697e-07
3.59698e-07
2.19765e-07
4.01373e-07
4.339e-07
5.58699e-07
5.68401e-07
6.03594e-07
7.05599e-07
7.54605e-07
7.21882e-07
6.70788e-07
6.66237e-07
7.00367e-07
7.16965e-07
2.04451e-06
1.51203e-06
9.49428e-07
7.0097e-07
4.46269e-07
2.79692e-07
2.7716e-07
2.92498e-07
2.89228e-07
4.49091e-07
5.47559e-07
5.8707e-07
6.78908e-07
7.79148e-07
7.60146e-07
6.76015e-07
6.91818e-07
6.96699e-07
7.6032e-07
2.20557e-06
1.42902e-06
7.24593e-07
4.49701e-07
3.11292e-07
1.67501e-07
2.10181e-07
2.24051e-07
3.26195e-07
4.67789e-07
6.12301e-07
5.95007e-07
6.71317e-07
7.88861e-07
7.89963e-07
6.70672e-07
6.69375e-07
7.60813e-07
7.3871e-07
2.37966e-06
1.3104e-06
7.8817e-07
4.04331e-07
2.47151e-07
1.21514e-07
2.89884e-07
1.79758e-07
3.04636e-07
4.89715e-07
6.62085e-07
6.23724e-07
7.26244e-07
7.80742e-07
7.97133e-07
7.03517e-07
7.57169e-07
6.97885e-07
7.56806e-07
2.32451e-06
1.24005e-06
4.11162e-07
1.46653e-07
4.14157e-07
3.60374e-07
2.54709e-07
3.27275e-07
4.94711e-07
5.08303e-07
6.77752e-07
6.5546e-07
7.46589e-07
8.09119e-07
7.44126e-07
7.62162e-07
7.39773e-07
7.48628e-07
7.78481e-07
2.33857e-06
1.01865e-06
3.36416e-07
4.46785e-07
2.82006e-07
3.29691e-07
3.36701e-07
5.15335e-07
4.44671e-07
7.39189e-07
6.39386e-07
7.13623e-07
7.59056e-07
9.04377e-07
8.54211e-07
7.76112e-07
7.97501e-07
7.96377e-07
8.90233e-07
2.3815e-06
1.08299e-06
2.81641e-07
3.51981e-07
3.148e-07
4.13018e-07
5.42438e-07
5.08583e-07
5.49637e-07
7.60971e-07
8.44692e-07
6.67305e-07
8.18051e-07
8.88016e-07
9.90653e-07
8.59806e-07
8.83102e-07
8.42832e-07
6.69424e-07
2.57291e-06
1.00798e-06
4.65976e-07
5.74817e-07
5.79018e-07
6.19605e-07
5.18516e-07
7.01067e-07
7.51097e-07
7.57952e-07
8.48806e-07
9.20498e-07
1.12498e-06
1.11308e-06
1.00863e-06
1.04312e-06
1.03258e-06
7.35069e-07
8.95601e-07
1.97835e-06
1.11816e-06
5.65672e-07
5.27351e-07
4.79011e-07
5.21765e-07
7.91762e-07
8.6381e-07
7.94578e-07
9.4555e-07
1.07537e-06
1.11458e-06
1.11139e-06
9.83448e-07
1.09155e-06
9.58918e-07
8.71564e-07
7.97425e-07
6.22238e-07
2.04264e-06
9.95722e-07
9.13695e-07
8.1259e-07
4.98028e-07
8.24718e-07
7.47065e-07
1.19163e-06
1.09503e-06
1.07817e-06
1.11362e-06
1.11557e-06
1.04958e-06
9.53085e-07
1.00026e-06
9.956e-07
7.36496e-07
8.00332e-07
8.60105e-07
1.79784e-06
1.21813e-06
1.2896e-06
1.23646e-06
1.2101e-06
1.47992e-06
1.66584e-06
1.82337e-06
1.18092e-06
1.13113e-06
1.08498e-06
9.92923e-07
9.2292e-07
1.1045e-06
7.6719e-07
7.80372e-07
8.44592e-07
6.91889e-07
8.23985e-07
1.89706e-06
1.33177e-06
1.45265e-06
1.84802e-06
1.87943e-06
1.29107e-06
1.81284e-06
1.30615e-06
1.133e-06
1.13951e-06
9.9403e-07
9.75529e-07
7.92202e-07
7.83211e-07
7.4582e-07
7.01975e-07
7.61768e-07
6.99117e-07
7.34042e-07
2.27661e-06
1.36371e-06
1.62723e-06
2.18421e-06
2.04076e-06
1.70553e-06
1.60407e-06
1.17833e-06
1.07051e-06
1.06414e-06
9.33744e-07
9.13829e-07
7.85555e-07
6.64797e-07
6.71291e-07
6.49644e-07
6.94029e-07
6.53778e-07
6.40063e-07
1.44824e-06
1.40697e-06
1.34132e-06
1.69508e-06
1.85022e-06
1.76761e-06
1.49671e-06
1.36263e-06
1.22767e-06
1.118e-06
9.88696e-07
8.69589e-07
7.36376e-07
7.32949e-07
6.80828e-07
6.54255e-07
6.4382e-07
6.32534e-07
6.09881e-07
1.90412e-06
1.34745e-06
1.32075e-06
1.44123e-06
1.78947e-06
1.5774e-06
1.5864e-06
1.54176e-06
1.31431e-06
1.20602e-06
1.13113e-06
9.87169e-07
8.44642e-07
7.50804e-07
6.8286e-07
6.16001e-07
6.0534e-07
6.18683e-07
5.84391e-07