/*--------------------------------*- C++ -*----------------------------------*\
| =========                 |                                                 |
| \\      /  F ield         | foam-extend: Open Source CFD                    |
|  \\    /   O peration     | Version:     3.1                                |
|   \\  /    A nd           | Web:         http://www.extend-project.de       |
|    \\/     M anipulation  |                                                 |
\*---------------------------------------------------------------------------*/
FoamFile
{
    version     2.0;
    format      ascii;
    class       volScalarField;
    location    "345600";
    object      sigmaSum;
}
// * * * * * * * * * * * * * * * * * * * * * * * * * * * * * * * * * * * * * //

dimensions      [1 -1 -2 0 0 0 0];

internalField   nonuniform List<scalar> 
23248
(
123639
123663
123774
124010
124423
125753
128896
138195
184033
129864
129863
129914
130685
131121
132301
134715
144593
190906
114986
115016
115133
115337
115558
116937
120056
128323
180141
117718
117724
117773
118235
118667
119754
122126
132291
185385
102357
102381
102485
102681
103121
104419
107602
119217
173127
117521
117507
117509
118005
118419
119447
121722
131476
182778
128294
128321
128444
128647
129005
130381
133289
139689
182757
131206
131209
131265
131594
132049
133163
135560
143663
186038
177849
177880
178033
178337
179177
180819
184397
195637
218398
140029
140005
140125
140398
140965
142254
144895
153497
188578
85915.1
85952.8
86060.5
86241.7
86468.8
87818.7
90934.1
101705
183254
114008
114002
114103
114332
114759
115818
118408
128412
175982
112639
112693
112830
113140
114163
114706
118300
131867
182900
134820
134796
134910
135177
135740
136976
139676
148872
190575
164640
164676
164885
165215
165843
168418
171234
177969
212998
152462
152441
152568
152868
153481
154754
157535
165514
198082
154282
154322
153531
153937
154625
156511
160498
175452
210723
155986
155969
156083
156356
156884
157910
160496
169301
208106
200920
200883
200863
201304
202173
203441
193252
206497
237405
179946
179928
180039
180376
181025
181984
184222
192863
226463
168665
168847
169228
169541
170330
173990
220688
199960
241602
200883
200910
201030
201326
202045
203971
201944
214818
244345
243396
243497
243714
244105
244940
246829
213954
248806
285638
245008
245023
245174
245525
246292
247895
252970
259305
282527
322546
322691
322863
323193
323806
323552
327528
337757
374733
297769
297914
298115
298520
299261
300549
303018
308753
326131
375261
375952
376179
376598
377407
378923
382133
388068
387863
343494
343499
343692
344084
344803
346083
348304
352782
367980
346886
346341
346485
346787
347345
348435
350980
359754
426782
375384
375452
375580
375821
376183
376616
376938
378248
401800
519834
520284
520433
520687
521069
521677
523076
526862
515856
414744
414753
414838
414992
415108
414784
412612
406848
425087
588990
589092
589140
589198
589234
589344
590370
596296
605452
428457
428464
428505
428532
428376
427569
424771
417521
436354
440144
440206
440240
440259
440183
439937
439804
443289
501194
405550
405589
405594
405492
405062
403630
399864
396207
436911
544682
544697
544702
544655
544421
543777
542492
539963
540650
418217
418225
418241
418203
417882
416624
412613
403338
422861
141227
141228
141271
141399
142862
143736
146006
158259
206717
96708.8
96715.4
96431
96410.9
97142.8
99681.9
102344
117913
241785
110127
110223
109015
108787
104065
112472
115614
125360
213643
117395
117290
125847
126583
126753
118721
122057
144802
220752
131347
131485
130994
129624
129896
132409
135563
149796
218890
96016.1
95983.6
95955.9
96310.1
97044.3
98363.3
102873
123392
216892
73067.2
73179.4
73741.6
73984.1
74089.9
75385.5
81036.1
109083
217864
139271
139312
139400
139951
140525
141777
145405
160634
234006
70330.7
70376.7
70465.3
70743.6
70815.3
72474.7
78413
104238
213337
142231
142278
142398
143120
140709
143382
147665
161761
225742
146305
146395
146522
146895
146997
148880
152934
165739
241707
166766
166800
166913
167171
167671
168887
172203
184455
263401
175566
175385
175457
175635
176108
177751
180264
191810
260045
246000
246368
246452
246599
246845
247523
250397
256533
293152
269709
269764
269813
269912
270137
270746
272617
279244
320914
243313
243356
243381
243440
243592
244097
246024
254732
315304
176849
176882
176919
177023
177332
178083
181024
194566
268024
220638
220684
220753
220875
221103
221905
224175
232163
281930
198440
198489
198558
198698
199020
199875
202577
213456
278108
113099
113085
113156
113433
113905
115061
117763
128029
179957
92402.6
92402.9
92604.2
92845.4
93700.2
94490.8
98011.4
109966
164875
112670
112701
115177
115813
116990
115284
117499
132503
197245
99514.5
99493.8
99609.7
99739.5
100010
100933
104140
118575
193725
100451
100437
100369
100457
100939
102147
105383
120006
197055
90477.5
90476.7
90552.5
90836.4
91416.3
92785
96826.2
115417
202673
85984.6
86008.1
86133
86402
87016.4
88520.5
92996.8
113297
199796
81836.5
81842.9
81931.1
82104
82600.1
83925.6
88299.7
108912
195592
99189.1
99219.2
99330.2
99540
100101
101634
105895
123142
199593
97738.6
97781.5
97894.7
98221.8
98885.3
100407
104912
124003
197435
134159
134171
134309
134652
135347
136930
140912
155453
214964
156820
156848
156948
157181
157675
158773
161728
173450
232954
168758
168807
168886
169061
169421
170144
172060
181078
237826
193471
193501
193591
193773
194130
194857
196521
202701
241828
205033
205077
205175
205378
205766
206468
208084
213878
243833
185309
185338
185422
185606
185974
186825
189033
197376
234740
164413
164453
164531
164695
165024
165773
168128
179027
225901
181573
181620
181732
181970
182453
183472
185944
194563
232700
163163
163221
163336
163579
164078
165159
167980
178777
224845
131990
128898
126377
128749
128691
128575
123387
116444
109302
110041
105149
102985
97512.6
100669
93555.6
89660.2
90124.3
88394.7
91316.9
126681
119285
117044
114887
108206
106038
99667.1
94572.8
92710.2
91348
91012.1
91048.8
94622.2
94305.3
90432.6
86951.7
82399.4
79422.9
86758.9
126132
127078
128936
121868
117518
116692
109980
103621
100855
98377.6
97652.5
97888.3
97413.6
99668
97576.6
93507.9
86382.2
86534.4
88708.2
121370
111279
104897
103189
101837
97434.2
91369.9
88734.6
87980.3
93457.5
88614.9
83898
86868.5
93871
91904.4
86563
84912.4
79533.4
78699.1
121286
119281
119389
110521
107266
109118
103152
97726.9
94225.9
93098.1
95065.4
93152
95999.5
95100.4
96328.3
93375.8
90953.8
84964.3
86795.4
108583
104683
99378.2
94339
98104
92848.2
91645.3
92836.4
93853
90940.5
88704.8
85214.2
81022.8
87559.9
89885.2
87140.1
84315.4
84666
81191.2
113152
112352
105595
105122
103159
101913
99966.3
100932
104952
100154
90505.7
95592.8
92594.6
92658.5
102680
81339
89055.4
87788.2
84998.7
98381.6
96914.2
96993.7
91791.8
91705.4
90339.5
101414
110773
99200.7
93557
85919.8
83258.7
80638.3
87918.1
87809
87851.3
81686.2
82810.6
84272.3
108522
107027
104887
97180.6
97574.4
104185
102774
111377
120721
102451
96542.9
90713.1
85670.3
87710.4
90963.7
100230
78709
88234.8
88332.6
93112.7
91987.3
93069.4
97389.1
103352
105159
109409
112576
102839
97960.8
87845.4
88710.4
81872.6
84461.7
89225.1
86662.5
84925
83874.2
84302.1
104404
102233
102254
99281
101905
110669
116128
115023
111572
106111
98224.4
91826.1
83028.4
81044.5
83659
90608.2
97500.9
88162.5
93391.7
97747.7
100814
100017
101379
106121
111588
106452
107025
97761.7
94836
94363.9
83119.4
82969.7
82024.8
74829.3
86537.1
86365.7
82672.8
82459.7
104347
108173
112132
111369
111380
116913
118345
117630
106391
97850.4
96758.5
93277
83513.7
76130.1
79844.2
81562.1
89795.2
86857.7
97261.5
108443
109189
104458
101353
109689
118469
105330
102950
95122
88675.1
84950.2
89608.4
78572.5
79369.2
80508.3
69843.1
79672.9
82169.2
84794.1
115474
119646
119849
114635
115913
121305
110831
111033
105775
91069.6
86016.4
86820.9
83742.7
78127.1
73781.7
82064.3
85172.4
93740.5
97807.5
111071
109023
102987
104903
100456
99893
113301
92261.1
91425.8
82235.5
78213
80775.7
84647.8
70509.5
76498.1
77680.9
74453.8
74222.5
84700.8
126329
123674
112506
112026
113036
113825
107307
96317.8
91940.8
87860.4
78065
76451.5
80417.5
79207
80112.7
82748.7
91703.2
97371.5
99788.1
109459
104546
102826
109298
99415.3
96411.2
88091.5
101736
81983.5
78771.7
72285.8
71542.5
77086.1
76573.5
71730.9
72864.9
78224.3
80477
85647.5
127078
115011
110175
109467
103148
100296
95953.9
90577.6
81940.4
78959.2
80077.8
72403.6
79172.6
82226.2
82023.4
87813.3
94018.4
98379.4
101683
105574
105626
99800.4
95301.4
101198
89303
87104
78743.3
89880.8
73896
75074.4
70362.9
71932.7
76093
78461.1
80251.9
81580.4
90772.7
94650
114643
109068
110829
101485
103242
96503.1
88882.1
84016.4
78113.3
75924.8
72807.2
81549
78960
84981
86869.1
91682.9
92337.4
97384.3
103145
106581
102643
94801.1
98478.6
89708.4
87659.2
77644.8
76009
68752
82054.9
67007.3
68555
68801.9
75096.5
80574.6
83256.1
87285
91490.9
95179.9
116355
112340
105137
99094.1
95868.7
88492.5
82212.4
74925.3
73157.6
76027.9
75211.9
78326
86242.8
80750.8
84207.8
89449.7
93717.6
98588
104727
105981
99514.2
95161.7
90599
87534.4
77218.2
79021.9
71299.2
71966.1
63960.7
79225.6
65947.5
72311.3
73578.9
80378.7
84652.7
89032.5
87555.9
91828.8
119262
110627
102157
96834.1
89943
81398.6
73892.6
72017.3
70328.1
71384
76983.8
78124.5
83829.7
86116.8
86580.2
91915.7
96165.7
101086
105032
105911
99252.3
95517.8
91062.8
78562.8
79830.6
68621.9
73524.2
65442.3
65600.7
64973.9
73211.3
70771.9
75748.7
76980.4
84142
86232.5
87159.3
90740.2
121445
112351
104837
97212.4
86103.1
76478.4
72310.3
69694.5
69799.3
71606.8
78633.7
84929.6
85866.6
88968.1
93797.4
99156.6
101160
103418
107575
106849
99438.7
95427.9
86526.1
84408.6
70868.3
73646
63670.5
69538.5
64380.2
64883.6
70577.1
77137.4
80704.2
82253.8
84383.7
89874.4
90059.2
96192
122268
114966
108688
94543.8
82251.2
76101.7
69889.7
69244.3
71689
74931.6
81701.2
91220.9
95502.9
98015.7
104886
108503
106724
109965
111284
107958
102963
92575.6
88066.6
74917.3
78163.5
64146.7
69193.6
64232.3
64981.9
66925.1
70033
79779.1
86313.6
85380.3
88632.4
94284.9
97171.9
101864
124374
116466
107195
98917.3
98365.1
74214.5
72923.1
72440.5
75600.1
82417.5
90061.5
97853.9
104726
102049
106221
111176
111856
118431
121669
112420
103171
92258
90579.7
83839.5
71556.8
74222.6
66012.2
67015.3
69720.7
72784.8
77338.8
85170.4
91486.5
95611.3
98901.5
99440.6
101220
108463
124555
115993
101863
94111.4
95076.5
100070
79646.4
78394.7
83647.1
93095.8
99859.9
107296
112933
119572
120137
113545
117096
124460
123274
110280
102663
93424.7
79760.4
89047
80879.7
72233.2
73680.3
69811.9
72757.2
80995.5
88407.4
95726.1
101165
102939
109451
107578
104493
110611
121171
110811
107751
100049
98671.7
96504.8
90727.9
87507.2
93024.4
102758
110072
117316
124610
127201
127963
122680
119928
126082
127444
105756
102455
97513.6
90150.6
80994.6
87258.4
78587.6
78356.3
78088.3
83967.5
90932.7
100574
107309
112275
111302
114953
114993
107742
112927
119675
123252
110118
107694
103506
102335
101125
99081.3
104418
113131
122629
129101
135639
132498
128846
121519
122697
124701
126349
104500
99805.2
97276.1
93775.2
92907.6
81556.2
92000.9
81913.9
91459.4
94482.4
103218
112669
118635
122111
119200
115215
113570
115863
117653
311855
346671
310632
257816
253152
234238
216495
199968
190540
174745
174241
163984
160442
158343
155519
140332
128474
132213
133967
293383
313403
283981
269847
254998
225483
205901
200462
183919
167415
162505
152755
153922
152179
138092
124467
130752
127440
122490
310133
324547
302091
266329
269041
225321
216811
214149
204491
193180
178828
169177
164345
162288
152820
139254
133556
135383
133093
301966
299967
281017
271213
253504
233203
213544
208604
204152
182438
166056
153572
158077
152931
134731
133556
131795
126938
123022
290401
325099
295183
286392
273968
236990
226465
219824
200050
195792
180802
169831
166607
166079
154077
140917
140310
138528
134286
289516
291623
282648
270094
262227
251439
223093
214254
202731
193408
179061
163947
166522
159851
135368
138324
131794
122559
113188
304668
308411
302575
290151
280687
260574
237846
220968
212982
196779
184787
179444
170057
165132
153068
145615
143080
137364
129759
283372
289358
285873
274638
265250
255773
233621
221713
202447
199476
182418
177222
169480
155313
140846
144755
136414
120783
106925
301882
328383
310758
293214
278032
263288
239172
221156
217118
205266
200900
187891
178413
167842
154998
153199
145014
133043
116899
284399
306713
297013
281833
267906
252374
238107
229059
210581
198043
189689
184612
171559
150924
148758
150621
137687
116345
100255
296844
346292
339880
302627
303952
260040
252081
241101
222366
204216
207543
196980
177890
168469
160344
157583
145335
126583
111993
265660
314036
297439
290760
271089
260760
243200
233095
213946
199601
205791
193628
171084
151543
160010
160251
125723
105263
98649.8
315306
325675
315867
323482
310138
272131
266643
253238
232972
215217
208465
191109
179154
172498
174384
161578
137417
117836
110078
287327
305845
305508
301773
283423
266574
249494
233303
222281
211095
210897
188567
171573
159765
172255
144320
111196
102785
104157
315034
378305
349503
325249
347512
285164
269598
254222
243701
215408
210016
194213
184543
177856
174240
152932
125742
114177
111222
287521
318684
315019
298917
290753
281456
263535
245723
222389
215317
202072
195340
169339
169657
166518
129651
108407
109329
112149
358269
384779
345369
359264
359479
320747
265699
265299
243209
220642
211576
195441
184201
174469
166401
144502
124740
120481
125790
301328
322337
321399
311339
297664
282691
264019
254770
232608
221906
206536
190129
175497
168670
153966
126059
114750
122183
117317
364550
427076
368613
341281
342636
319170
281468
285595
249432
226528
211967
204123
185342
173446
162326
143740
126589
130544
132649
309268
336355
340933
329909
305612
290407
279236
265557
241279
231909
207466
183171
184877
166101
148891
123898
131113
130625
117444
372672
424569
383155
381634
333844
360388
319044
279497
264510
241996
211289
204359
186818
171946
156544
142078
136719
139297
129860
326792
352294
352219
339141
306516
310424
308009
267957
252593
238801
203931
185418
177910
164938
141974
134266
139735
131049
113354
414446
429494
418034
374399
387653
353710
311094
290124
279198
228271
217658
203871
195839
174420
155793
147314
146260
142038
126830
380761
383742
372162
364227
337983
332514
301103
277791
265523
232153
212762
189106
179303
161549
143906
139330
139500
127681
110555
434431
470095
474831
439568
374050
406874
361881
310676
300506
238546
231832
209462
190926
168234
158694
151168
143678
140098
128303
393844
400091
400613
382986
364762
336564
320418
312098
268117
234886
216890
190392
175352
152894
145019
140641
137500
128652
113982
577391
501936
485923
531564
480193
456411
345466
341709
281114
261734
240159
207546
181846
167264
163116
149220
142766
141308
131065
451381
442965
443198
419201
397447
360332
347094
304785
266800
244585
227382
186523
177013
150102
149541
141088
136285
130739
119793
552834
648280
594915
521798
453379
453014
364176
347535
298939
272032
245946
206109
182252
165337
163860
154158
148637
144332
133155
479750
475643
468241
443512
423821
391683
351451
314354
281888
260214
232646
188136
183585
158470
147419
145948
136251
126901
116972
545734
682477
628173
612252
558330
415862
393448
355277
318334
265611
236355
214512
192935
172881
162757
158328
152088
145441
134115
497924
457967
496004
490525
437736
406518
377433
326360
301744
261316
226267
200785
185165
169876
151435
148919
138616
125169
117852
675999
755779
628510
610129
522143
486738
440459
370856
331807
261755
246925
225449
197560
180404
162571
157673
153942
142118
133079
562580
503027
524892
498584
465644
424783
388765
353680
300464
252312
235376
208673
188337
175622
157931
145073
143818
128127
117753
646715
706431
653651
583291
478073
496953
461287
392042
332508
291942
260780
230229
201667
182295
169336
155704
148840
141780
131166
579261
521870
465781
469650
467222
423973
404501
368214
315957
269556
242958
210111
191242
174621
161850
139750
139690
131601
114801
721021
604120
605475
561211
500528
447912
431383
428774
355367
321343
267732
240288
208468
185474
173309
157938
145533
138413
130114
621681
505626
469905
442034
442866
414666
404740
385118
334460
289999
244775
226853
193238
179571
163358
141631
130604
128806
115252
326693
332602
317701
293853
267836
211620
185426
172117
165203
153882
143479
148643
148267
156786
162351
151354
128926
127656
135568
262865
512827
328830
266976
213131
181146
162531
141617
137539
135997
142925
143323
146212
152186
151116
138925
128720
126750
130164
396489
491852
290125
228980
190532
160965
125112
112619
116783
119212
123756
132111
136730
145863
145074
131927
121558
129625
131318
470758
367017
277724
207593
149459
131749
104976
101072
105049
111716
120021
128183
134668
145208
140920
123694
120313
129929
133989
512306
343865
248876
181025
134930
105247
100569
94612.6
97839.5
106834
114369
116884
128912
136029
131422
122320
122547
129275
132590
544949
337544
195001
149208
111812
96844.2
91268.6
79427.4
83933.7
102038
113889
119276
128338
131796
130337
127062
126802
128217
132189
541142
323244
190864
125687
108416
92510.8
76828.7
77120.3
86095.4
99038.8
107193
113731
120469
135767
135697
133191
129352
131910
131839
474555
296286
175535
125226
104642
88132.6
75897.1
75838.4
77882.5
104129
109149
113944
126239
140784
145246
139661
133978
133405
128495
537492
306102
183771
117953
107479
88981.9
77023.5
72300
87032.7
103348
117217
121384
141177
150297
155722
149457
142633
132187
116932
548273
296616
186809
133810
111991
93468.7
89083.5
86271.6
104109
115262
130907
142504
157761
160557
156359
150157
148393
124275
119260
463704
309091
226298
153492
126337
114350
113343
117694
123306
137239
153072
159545
157782
151486
156831
140808
127683
121362
105494
483438
322973
228180
178105
136575
135999
134990
143449
149648
151766
158839
156761
155830
147852
146548
133521
119400
109540
113258
450308
347999
259667
238781
207901
214913
191639
177703
159983
159239
150549
146912
146317
137315
121319
120302
115390
101982
101963
464216
334766
300201
266772
264902
220510
244090
163246
153874
148474
137714
133122
117767
111696
106795
104629
103396
98187.2
97961.1
390001
313240
313547
322871
291731
242164
207935
153148
142410
127034
116391
116099
102904
100367
96576
94735.2
97013.7
94769.2
89704.6
411439
373328
343000
268630
270658
225590
174217
144651
130585
117680
109220
103075
98938.6
92982.8
92413.8
88472.3
92503.6
93085.8
91220.1
458238
366593
311643
266535
231715
194696
182273
153514
121706
113022
106713
98916.9
96801.8
91477.8
85027
85839.1
84582.3
93653
92490.6
408351
369100
292850
272847
226849
192588
170465
155997
129746
112854
107327
100368
95715.4
94341.9
86651.7
84618.2
83972.1
86261.4
92842
407547
394680
275542
236975
206217
183248
168856
153218
134983
114099
106610
101394
94726.1
91939
86590.3
80183.4
80899.4
78139.5
84929.5
307214
306145
281156
264780
247971
208953
184686
169265
156853
150029
142897
139398
148539
156631
145063
122760
121654
124214
121271
325400
346893
301187
254225
207247
177358
147625
136807
130468
132860
131892
130355
141592
152997
141979
120955
123453
118565
119907
347872
346905
284764
227388
178871
138461
113436
105151
115105
122959
126114
122712
134389
146367
133139
116268
122220
123747
119941
355544
362849
265952
197331
142057
110983
94789.7
90371.6
103894
113974
117733
115686
132583
145810
130418
114877
125589
124233
120880
358782
359843
241437
174414
111569
94545.4
83944.9
78402.5
100839
107351
107624
115168
125350
131845
126256
119160
122008
123947
121086
399375
334564
237676
146623
94746.6
83558.7
70955.4
75532.6
94268.1
106752
109513
110378
118611
128103
129234
121501
122635
127392
121709
361845
330517
197705
125213
88874.8
79243.1
71202.6
73685.2
83618.3
93159.4
99853.5
108736
121965
132758
130311
126123
128760
127831
115388
364941
315818
178802
118328
88808.8
76562.3
66693.4
70490
90021.8
97567.7
105736
113247
126677
144724
146997
134372
131848
124921
107882
362386
296776
177510
125658
90131.1
78845
71718.7
72715.2
102372
104306
117580
131677
145282
148233
154024
144540
125491
124293
103937
366667
296742
181244
128889
98428.1
85778.5
86636.4
89570.1
121018
121660
138278
147772
151440
154840
151220
144375
122846
107609
99501.8
375859
287203
191658
143073
113685
101262
124951
133925
142650
143882
152189
148553
156150
148194
140604
127336
114216
107872
95287.2
376736
280511
209596
174254
157174
143042
140320
138359
144496
150427
155666
151766
153247
128199
122695
118336
102252
105053
95873
353293
298525
228541
225249
195927
174589
174391
163106
157574
147928
141423
134426
122111
112444
108380
104424
97324.9
94495
95473.9
347825
283513
249647
246993
221023
197675
173516
165546
152068
130896
122148
110399
103633
94821.8
94551.8
94708.6
91289.7
84557.3
92435.9
343441
283379
254966
253416
230829
197999
171590
147051
128768
114057
108413
100480
91114.8
90443.7
87134
87950.2
89290
83811.7
85430.4
331411
290029
249073
240746
223306
188532
159582
130522
115579
102029
99288.7
96794.4
88403.1
84282.7
83366.8
79689.4
86706.3
85790.4
84373.2
306618
301659
252947
219125
206331
186123
158405
128061
114281
103074
92590.5
91185.1
87583.9
79428.7
79615.4
78919.3
80319.7
86531
84511.1
317962
305932
242783
217126
200466
172605
159684
132553
112485
105028
97194.7
90431.2
87253.8
80956.4
77247.1
77927.9
74840.7
80985
83173.9
320832
305240
240542
216232
195839
164345
155176
136644
113748
102890
98050.1
89846
83477.4
81020.7
75319.9
75165.2
73740.6
74315.5
80921
412218
374834
282098
238039
204055
182258
162084
146025
130695
110555
103534
100197
92695.4
89295.7
83882.6
77699.1
80365
77787.9
87149.2
333171
302702
238455
206221
189898
159434
151602
132746
110333
101275
97006.4
87797.4
81242.9
78908.6
73319.7
73546.4
73468.3
73587.8
80769.8
416178
379370
272149
245952
205755
181782
164503
149198
125017
109599
105686
100374
94687
89826.3
81448.8
79319.4
77364.9
78714.1
85516.8
334245
290176
240162
209918
187433
159142
149065
125834
108542
101625
96605.8
88522.8
83341.7
75746
73830.9
75386.8
69836.2
77840.4
80734.3
429146
397172
299054
279793
209972
190709
167331
153605
130883
116472
113202
105388
101432
92691.3
85851.6
84802.1
80745.7
89199.7
87948.9
321763
295676
257742
216309
190938
171406
153994
128173
115978
110252
100880
95148.2
87167.3
79450.3
79369.6
77142.3
75438.8
82496.4
80190.9
473940
386046
294189
274627
228005
214915
176574
144983
132478
125464
114317
113580
109831
102518
98196.2
90782.3
92467
93588.7
90130.7
335826
307707
253710
230893
202640
179674
160460
131538
120463
111163
109959
103814
94638.5
90466.7
86375.5
79621.2
85146.3
83916.9
83425.9
396698
378972
329378
301321
271047
218974
166754
149898
135027
121942
118600
113320
111679
107144
104578
102623
105726
99883.9
90740.9
337739
299842
263819
251890
222154
188314
164114
137146
117903
109828
109968
106777
100394
100217
91816.4
92444.5
93067.9
87504.5
87134.1
445436
415989
366872
305441
266331
226400
194358
150594
134494
129696
126219
123824
110874
111671
107160
114313
113804
102706
96899.5
331728
293782
278472
269371
243281
198387
162755
140155
125233
115435
111567
109831
103641
102191
99339.4
105076
100486
94939.1
90058.4
360672
348016
360098
342600
296739
224125
188155
161833
145842
137442
129091
133977
125349
119071
120009
127346
112048
104003
106477
317378
294832
286412
267590
243105
205538
176564
151975
136196
127920
125501
118727
113074
108161
109512
108228
106505
101344
92302.6
383703
346732
318498
321576
260649
201381
188877
178005
159836
152829
152362
134444
139258
126562
129065
127339
111490
114557
107151
340497
299178
266159
257676
226173
196921
181520
157212
145220
136989
130977
126165
122872
117260
121266
115338
108766
105259
92705.1
351213
290459
231024
221800
247589
188327
188880
175163
169055
155731
159530
151763
137778
135962
138285
126454
123421
112956
107444
293894
258241
221862
217392
210651
191912
183588
165173
154096
147680
138111
135835
137333
126263
122726
117773
113788
105045
93016.6
409886
267235
182363
159920
165082
178299
170322
160786
167817
162584
157502
159069
146844
146616
138064
133368
135182
125919
108858
278962
256226
193941
169648
170686
169565
163123
162804
150160
149331
150622
149580
143402
132259
129732
125114
119637
104382
98253.9
372520
275500
185783
138420
136882
139887
145477
141469
152377
153314
147814
155022
151644
140848
136196
140327
141140
121917
112848
278771
246120
171022
145238
133709
137867
137357
148342
152121
145364
149347
151220
139352
135148
136654
133393
125026
110839
99149.4
395364
261833
176666
142212
123617
127704
130880
135591
134806
136936
144005
149766
150087
142009
129123
137915
142135
127377
106657
300556
247206
169045
134631
120324
124744
121883
137284
139995
142808
140813
149054
142592
129465
135140
136639
121223
115070
100232
412409
343208
170670
153428
125141
125170
128304
140520
134690
134996
138671
144550
144958
137644
127941
129265
135230
126771
109097
307736
271348
180393
134065
119395
115403
119637
128240
127281
128106
129797
139230
144333
128188
123911
137147
127085
111728
101351
441082
332280
209954
146744
137286
133154
133917
134689
141289
139861
139418
138974
145480
140342
130060
131290
132704
125670
114410
313029
289807
204020
144272
122072
123855
122533
131420
134373
133812
130272
133618
139907
130105
120705
130286
129108
118334
103786
487549
353874
223666
164419
146418
138832
137710
135018
142315
148543
150879
147583
149881
146213
127263
129914
134615
129013
115462
327738
297922
216999
158957
129794
127700
128038
123885
133250
141079
136419
140853
144042
130114
122783
128880
127762
119433
110661
359052
498590
277906
178642
157313
150923
146468
144058
142608
153169
152945
148079
161024
153658
135482
128608
131753
130041
123220
379157
320063
229679
172210
145239
143413
136577
132983
137274
145314
141326
145501
152272
135766
122131
126039
126199
119644
115081
456966
470119
270408
204248
189159
164116
153303
151683
155479
160087
154236
152848
172196
165809
143579
132815
132973
135596
126392
375984
333109
236804
182181
157771
159595
156854
143429
144366
151858
151750
154331
158162
145054
123215
127105
127105
119316
116371
500843
446494
290923
236058
208472
194569
172763
161108
164488
175956
167614
155792
165564
171738
154709
140264
139601
140295
133861
437798
335647
260295
208082
185053
182475
163603
152916
152086
163666
159471
154594
164867
156522
134127
130021
129611
121184
116661
498887
470664
290121
244312
234597
207094
191392
184962
177720
175456
176935
172114
176209
180004
162666
142423
138756
140484
135523
400185
353638
286450
229597
211433
195419
194572
175570
163546
175997
173190
158745
172311
171607
137076
128171
129530
122342
119296
161923
161977
162065
162254
162682
163787
167244
181101
253772
150033
150085
150198
150442
150951
152107
155368
168325
219698
125574
125628
125724
125945
126461
127850
132478
152176
476957
153166
153211
153320
153556
154050
155161
158311
171238
299412
157214
157268
157387
157644
158195
159506
163242
177508
428788
149524
149568
149648
149809
150140
150930
153556
166702
296586
156657
156720
156838
157095
157652
158952
162527
175637
364863
170419
170454
170522
170661
170938
171571
173622
184031
311488
223494
223549
223653
223868
224322
225316
227757
235196
410177
204171
204239
204331
204513
204868
205588
207341
213942
304364
198562
198626
198734
198956
199430
200510
203333
213022
377979
206993
207072
207179
207356
207686
208368
210195
217360
302638
234772
234886
235033
235279
235803
237043
240116
249277
416664
205980
206315
206514
206733
207174
208110
210854
219850
306033
236429
236513
236660
236994
237691
239113
242085
250234
407238
210585
210301
210338
210666
211351
212736
215147
221294
299764
184731
184820
184939
185187
185716
186784
189818
199399
376371
166767
166771
166910
167259
168007
169620
173154
183795
270546
128870
129177
129294
129568
130187
131615
134769
147760
340305
120882
120880
121030
121387
122120
123878
128369
141776
246501
92093.3
92018.4
92133.1
92455.6
93406
94577.5
98299.3
115830
346689
95633
95653.2
95820.1
96195
96943.7
98720.5
103282
118966
240689
94422
94581.6
94680.5
94866.4
95520.4
98250.4
102120
118308
391424
84093
84107.5
84259.6
84583.3
85365.9
87119.8
91575.3
108366
255938
50656.2
50709.5
50848.4
51689.3
52651.2
54520.7
61126.1
86749.9
384678
75969.3
75957.9
75843.3
76130
77075.2
79069.6
83385.9
97318.8
259915
131506
131562
131680
131305
131581
133250
136923
145530
321643
78391.3
78338.9
78630.8
79074
80930.9
83086.8
86269.2
100412
260027
62648.3
62650.3
63267
61615.6
57727.1
57580.5
65618
95372.3
329058
76543.9
76518
76767.9
77215.4
93074.3
94349.3
98245.8
102675
279480
87084.6
87156.6
89600.6
90236.1
90651.1
93010.9
98329.6
112158
420719
80499
80581.3
81250.3
80865.7
78230
78122.3
84082.4
106329
280170
115337
115287
113111
113063
113283
114727
118302
130645
453092
119808
119750
120376
120389
119948
121160
124697
133492
333985
130737
130760
132914
133015
132215
133731
136768
144879
506979
112901
112842
112858
112846
112577
113585
115628
129771
334440
136395
136339
134557
134678
135606
136255
139428
148573
360613
147691
147650
147633
147852
148308
149324
151094
160791
340079
744225
590696
567613
523264
468169
490383
435467
393050
349495
298807
266401
252317
213220
188776
173511
157736
144209
137625
127741
565154
519209
457739
457013
436055
435398
408013
371750
342504
307629
264759
241699
215504
186032
170341
152065
143269
132574
122611
558029
537640
483792
479603
467963
442495
409973
375453
333488
285942
252227
234114
207111
188935
168840
153344
142723
126288
117781
570389
556377
501452
488668
467143
445159
407748
363369
316088
281027
247532
222764
206991
190830
165086
155675
139846
126186
114631
541172
544214
523981
504461
460430
412870
378871
350273
316602
259924
242214
209157
199208
182942
168800
155907
138868
125293
111480
540174
527581
519526
465470
425384
385555
356912
328340
294632
265813
238815
214830
189999
185778
171524
154364
144971
127775
111733
455682
471568
455156
441631
408127
370766
330513
299407
269960
246518
239918
210566
198525
186407
172214
158889
154770
132703
111865
426823
436606
414055
406593
381019
352883
318847
308622
261830
237207
225042
213609
205801
184784
169886
170126
166314
139072
114990
391930
422282