/*--------------------------------*- C++ -*----------------------------------*\
| =========                 |                                                 |
| \\      /  F ield         | foam-extend: Open Source CFD                    |
|  \\    /   O peration     | Version:     3.1                                |
|   \\  /    A nd           | Web:         http://www.extend-project.de       |
|    \\/     M anipulation  |                                                 |
\*---------------------------------------------------------------------------*/
FoamFile
{
    version     2.0;
    format      ascii;
    class       volScalarField;
    location    "345600";
    object      sigmaEq;
}
// * * * * * * * * * * * * * * * * * * * * * * * * * * * * * * * * * * * * * //

dimensions      [1 -1 -2 0 0 0 0];

internalField   nonuniform List<scalar> 
23248
(
60854.7
60842.9
60845
60826.5
60811.5
60656
60432.9
62088.6
85568.5
60008.3
59967.1
59914.1
60236.1
59945.9
59435.8
57993.6
57588
76134.7
57677.8
57682.8
57687.7
57633.5
57451
57330.5
57061.7
58147.3
85465.8
51923.3
51911.8
51857
51899.2
51655.4
51061.4
49465.5
48883.7
72599.4
46509
46492
46482.1
46411.4
46433.8
46255.6
46086.6
49881.9
80897.5
51211.1
51166.9
51073.9
51130.6
50880.5
50265.9
48672.6
48025.3
70726.5
62873.3
62864.3
62872.2
62822.2
62776.5
62706.8
62416.1
62769.2
83968.4
57392.7
57401.4
57351.8
57315.1
57112.5
56618.4
55224.1
53436.1
68895.3
96092.1
96068.2
96098.4
96133.8
96464.6
96683.2
97100.9
100699
106167
64098.6
64055.5
64044.9
64006.9
63879.8
63529
62431.6
61340
71412.4
37716.2
37675.7
37658.4
37569.4
37378.3
37196.7
37013.5
41261.1
92860.5
50917.5
50881.5
50854.7
50769.7
50498.9
49869.2
48411.6
47740.4
67307.7
60027
60019.8
60027.6
60038
60288.5
59857.2
59878.3
64146.4
89689.6
64309.7
64280.5
64259.6
64199
64009.5
63523.8
62157.5
60746
74795.1
88045.6
87991
88046.9
88079.9
88048.9
89284.6
88905.5
89999.1
104410
75230.1
75183.6
75175.5
75141.2
74996.2
74550.4
73279.8
71065.2
78215.2
87407.9
87385.2
87002.7
87034.1
87040.3
87288.3
87592.1
92586.5
105764
76345.9
76335.7
76330.9
76270.6
76040.4
75310.3
73657.3
71487
82316.9
119952
119872
120017
120125
120322
120247
110741
115698
123491
93398
93347.6
93324.3
93310.1
93179.8
92441.7
90638.4
88213.6
94699.5
96801.4
96890.2
97091.4
97078.5
97081.4
98216.9
118174
108076
124832
108854
108829
108793
108695
108478
108213
103046
102550
105478
148628
148663
148722
148774
148861
149187
122838
142349
152396
139508
139461
139439
139381
139220
138719
138579
133684
129586
205994
206070
206105
206127
206082
204708
204940
206382
214551
178359
178454
178464
178429
178205
177356
174900
168771
158496
251412
251841
251898
251952
251967
251753
251017
247539
214348
213709
213616
213589
213485
213115
211972
208665
200153
185140
227034
226581
226570
226487
226205
225449
223842
221985
244715
228968
228973
228890
228638
227912
225923
220662
208504
199113
344088
344481
344471
344359
343968
342936
340776
335698
293742
242995
242963
242841
242510
241574
238962
231645
213532
199415
383612
383672
383578
383314
382666
381330
379207
376903
354975
249995
249923
249746
249272
248035
244870
236761
217074
203394
279118
279107
278960
278573
277633
275544
271343
263770
270444
236800
236754
236520
235883
234287
230282
220564
201987
203830
344950
344905
344761
344386
343475
341439
337233
327588
298225
248827
248759
248532
247941
246441
242638
232979
210379
195432
68039.2
68009.7
67960.9
67877.8
68468.3
68019.9
67273.9
70741
96962
44085.7
44029.8
43675.9
43387.5
41565.7
43697.2
42675.6
41058.3
114826
48987.5
48857
44811.2
44942.4
41263.6
47347.7
45917.3
46427
106354
52184.7
52071.9
57531.2
57852.1
57529.3
50886.4
50699.1
60382.8
108536
63432
63533.7
62977.2
61642.5
61319.2
61984.4
61566.7
66131.7
108044
39426.6
39350.5
39112.1
39113.3
39074.8
38736.7
39260.1
49046.1
114779
27864
27876.6
28122.9
27990.9
27490.8
27090.4
28601.6
45336.8
116133
73806
73778.1
73751.6
73887.6
73786.3
73434.4
73304.6
78537.7
121543
29785.2
29774.7
29728.1
29637.9
29103.8
29013.3
30852.3
46059.3
120085
82935.2
82933.1
82917.1
83269.4
80483
81318.7
81513.9
85348.1
119230
85366.6
85375.8
85358.3
85378.2
84861.1
85000.4
85049.2
88473.7
133048
93413.1
93394.6
93369.3
93297.6
93066.3
92600.7
92016.9
94533.4
138736
93390.8
93237.3
93182.5
93048.5
92787.5
92600.5
91591.7
94269.9
131416
136651
136896
136848
136701
136311
135578
135077
133944
146106
152461
152468
152386
152185
151757
150935
149637
148802
164990
134518
134503
134385
134113
133548
132485
130917
131063
160243
85843.3
85814.1
85683.2
85403.3
84870.9
83854.4
82891.8
87076.3
130264
116249
116226
116123
115868
115306
114373
112909
112175
132141
106667
106651
106540
106280
105750
104801
103604
105245
138701
49435.8
49410
49361.9
49343.5
49131.2
48566.2
47192.6
47011.7
69093.2
42850.8
42837.8
42856.3
42765.5
42709.9
41699.8
40693.4
42368.7
65554.7
51456.2
51334.9
52062.3
52038.5
52280.2
50540
48637.1
50314.7
82159.9
43341.6
43331.2
43213.6
43017.9
42524.6
41573.1
39991.8
41922.7
81053.5
42921.6
42848.3
42675.6
42498.2
42125.6
41262.2
39585.1
41860.4
83191.6
40288.6
40278.6
40189.7
40054.7
39687.8
38816
37416.8
41990.8
90515.6
39454.8
39444
39391.6
39248
38903.1
38131.9
37158.5
43479.8
91285.9
33163.9
33149.7
33071.1
32844.4
32376.8
31415.5
30279.2
37190.5
87339.8
47741.5
47715.3
47658.2
47467.2
47070.3
46283.8
45094.6
49043.7
91514.8
47454.2
47462.5
47394.3
47264.9
46884.4
46020.8
44803.2
49825.7
87229.9
67899.3
67849.4
67791.2
67666.8
67310.2
66438.5
64744.2
65621.6
93095.2
77726.1
77686.5
77601.8
77389.1
76861.7
75599.5
72922.8
70851.6
97461
78535.6
78510.3
78401.9
78126.7
77466.6
75887.9
72460.2
68641.1
94962.7
91938.6
91888.6
91778.9
91503.6
90849.4
89327.6
85909
80353
92463
102141
102106
101990
101704
101028
99416.6
95875.3
89902.7
93943.8
91092.3
91017.2
90862
90500.2
89681.5
87932.6
84382.7
79734.7
88669.1
78413.9
78370.6
78188
77761
76816.3
74816.2
71117.5
68425.2
86160.9
88053.4
87997
87839.4
87472.6
86664.9
84930.4
81452.5
77040.5
87775.6
80461.4
80413.7
80245.8
79853.7
78999.1
77203.4
73810.6
70920.5
87965.9
58988.6
56854.6
55812.4
56471.8
56375.1
57054.4
53981.8
50610.3
45941.8
46521
42907.6
41657.7
38983.4
43615
40602
36977.5
36910.5
36755.4
39139.5
53281
48847.4
49687.9
47555.3
44082.3
42201.2
38606
36320.2
35909.5
34568.5
35464.9
33852.2
37507.6
38695.6
36095.6
34769.3
32527.2
33650.6
34091.4
54006.6
53782.4
55778.1
52788.4
48919
50085.7
47025.7
43210.5
40940.1
39186.7
40754
39931.3
39006.6
41089.8
41371.8
40691
35612.2
34920.4
34264.8
50002.1
44681.2
41765.3
40695.4
39118.9
37405
34382.7
33574.1
34253.7
34167.2
36727.8
33227.8
34205.2
39348.5
37077.7
34443.5
34568.2
31169.8
32735.8
51199.5
50510.1
50454.4
45149.7
42856.4
44997
43133.7
39814.7
37181.9
41076.8
38018.7
42456.4
35917.7
37466.8
39674.8
39192.8
39912.3
32204.3
34604.1
42145.8
39922.9
38124.7
35386.7
37072.3
33352.9
34202.8
35299.8
37695
34489.3
32535.4
37063.1
32931.3
33999.7
36748.3
35039.6
33300.2
34061.6
32434.4
48453
49052.2
45361.5
43281.8
41220.5
41996.9
39997.5
40473.4
43326.8
40401.4
41375.9
40188.6
35650.9
32870.2
37685
37222.9
38940.6
38320
34098.4
37722
36474.1
38391.7
35341.6
34936.7
33090.1
41684.1
46145.8
36636.5
36888.9
33150.5
30301.4
33961.3
28158.8
34133.8
37525.1
37211.6
33229.6
34899.6
45905.2
45837.4
46805.9
40219.8
36695.3
41294.4
40658.4
44395.6
53132.9
41669.8
38381.9
37457.5
35747.1
33230.3
32555.6
36749.7
35979
37169.4
37476.4
35648.3
36332
37789
40512.9
41558.9
42957.1
44479.6
45821.3
38442.4
36657.9
34054.7
30507
31143.2
36557.1
30343.4
32673.5
37244.6
33620.4
33764.2
43967.6
43021.1
43153.4
41288.8
41932.1
43793.3
47468.4
46835.3
45279.5
43813.3
40192.6
34917.6
34420.6
32336.2
32417.7
32188.2
36306.6
37220.4
40672.7
39455.9
42771.5
41928.6
41662
46766.1
47225.6
42441.2
41013.2
37586.2
36289.6
36232.8
31910.6
28037.8
32331.9
31241.1
29559.7
32652.2
36823.2
36907.2
43128
45486.3
48844.2
48652.1
48702.9
49053
48572.5
48458.1
44713.1
39094.8
38630.6
39054.4
30096.2
30766.3
30981.6
32135.5
31096.7
34574.2
41399.8
45050
46475.3
44118.6
42649.2
49066.2
47100.5
42110.4
39615.6
35743.3
34453
33137.1
34716.2
30251.2
25730.1
32141.7
27456.1
25608.3
30491
38279.6
49302.5
52501
55083.4
46001.8
51665.2
53071.5
46093.9
45354.6
42004.7
36680.2
33410.3
33844.3
35114
25047.9
29506
32301
35628.9
33168.6
38943.5
46083.5
45376.7
46504.8
40751.2
43691.3
42049.5
43317.5
37262.1
33341.4
31208.8
30328.5
32467.9
32443.7
27794.9
24006.6
29711.9
27325.7
25552.7
28836.1
56627.7
56072.5
48479.2
49947.3
46212.3
50807.3
44701.5
41397.1
35707.6
34201.6
32866.1
29631.8
32496.9
33280.9
27513.3
34241.4
38583.6
42475.5
40213.3
44364.5
44321.7
42038.9
45904.8
38471.1
40586
37622.8
38361.1
35381.6
28178.1
29902.4
29810.3
30767.8
27208.2
27230.7
32014.1
28767.2
29091.3
32001.1
57034.8
49482.5
48238.6
47546.3
43957.1
39078.1
40770.8
37865.1
35251.1
30238.1
30706.7
30328.4
31470.7
37066.1
32318.7
36091.8
38843
40604.3
42442.3
43693.8
42816.7
45070.3
39039.6
41422.6
34157.2
36180.2
36022.7
33495.6
32802.7
24173.4
29770.5
28393
29763.8
29123.5
31259.3
31425.1
35927.6
36492.3
48726.2
46259.4
48381.3
42239.7
45110.9
40480.4
38318.7
35747
29855.2
26495.7
27880.4
32095.7
32734.6
36918.9
36668.1
37703.6
38093
39957.5
42017.8
42236.3
43478.8
38076.4
40515.1
36706
37862.2
31202.6
30640.6
33311
28828.8
29914.7
23592.7
29196.8
32937.1
31362.1
33000.1
34964.2
37265.4
38229
48954.8
48962.5
48666
42534.1
40254.3
37967.8
33314.7
24452.1
32028.7
32496.8
26221.3
31136
35947.1
32485.1
36984.9
35654.2
38935.6
41261.3
43366.2
43061.8
39336.5
41575
37095.8
38477.1
31744.2
30674.9
27193.7
26524.9
31986.4
27462.9
29570.6
24825.4
31110.2
35177.7
32122.3
36332.1
35058.5
37027.9
49594.5
47314.4
44051.5
44916.7
38897.8
33279.7
30871.4
28654
29031.4
32024.8
30004.2
35993.2
37693.8
35226
36321.4
38637.6
40027.4
43403.8
43951.3
41136.8
38892.3
38790.7
40257.7
32429.5
31797.8
31913.6
28524.9
27851.9
25422.4
30473
26789.1
32813.2
25570.3
32307.8
33191.8
34312.4
35175.5
36369.2
49868.6
47213.1
46294
41857.3
39369.3
33200.9
29557.6
28838.4
28503.4
23774.7
36252.2
36875.7
35349.5
40742.6
39604.2
44064.9
42984.4
44660.4
46694.9
40988.8
38712.9
37566.8
35181.9
33284.3
34275.8
28250.8
29090.3
25991.7
23311.5
24077.6
31554.5
28337.1
36353.2
29843.9
33672.3
35342.1
37321.5
40634.2
49791.7
47241
47242.8
41056.1
37292.1
34879
30261.4
28701
30316.8
32233.3
29859.2
41160.8
41885.8
40338.3
46968.5
48175.5
47086.9
49476
49295.5
40856.5
40019.6
36699
34817.2
36677.7
30676.7
30672.4
26547
27355.6
24249.5
22554
26513.4
32675.5
34335.3
36712
35921.5
38749.2
41089.5
43637.1
50808
47689.8
45868.4
41666.5
38884.4
33810.9
32200.3
31105
32125.9
35503.5
39572.3
42361.6
46012.1
44486.8
47389.6
47903.3
48974.4
53918.3
56494.1
44618
41240
37297.7
31151.5
32070.3
34572.3
29211.2
29789.3
26452.9
26623.3
27476.8
30751.9
34318.2
36821.6
39491.6
41175.3
42203.2
43701.4
47434.3
51497.5
51466
38926.7
44048.7
39660.9
39808.2
35951.8
34451.4
36275
40959.3
43664.2
47540
49474.6
54090.8
55194.8
50257.6
50879.8
57192.9
57092.5
45205.2
41801.5
35926.9
35110.9
29841.6
30700.7
33612.6
29217
28998.6
28585.8
31779.4
35199
39514.6
42075.4
43465.5
46528.1
45976.4
45677.9
48443
51123.6
46949.3
48542.2
39265
42343.2
39998.7
39435.4
37602.5
40767.6
44997.4
48345.8
51511.8
55954.2
56577.3
57858.8
55388
53940.5
57159.3
58692.2
43237.9
45192.2
39100.5
34214.8
33145.3
27091.5
32589.3
30850.1
30683.9
32791.9
36096.9
41008
44704.8
47464.6
48466.9
49869.9
50076.2
46625.5
49566.6
51697.5
47407
46795.9
48762
41783.5
43226
40749.1
42067
45037.6
48951.5
54406.7
57157.1
60932.9
58570.8
60181.1
53484.3
55365.6
57615.1
57085
42534.8
38011.4
41790.8
37676.2
28417.2
34192
25371.4
32167.3
36167.9
36311.2
41792.2
46577.5
49735.7
52174.8
51815.7
50155.5
48186
49925.2
51439.1
149792
176566
151547
111763
108062
100594
86463.1
78104.3
75036.1
65630.2
69590.6
63480.6
61960
62577.3
65191.8
58454.1
51285.5
56752
57858.7
140831
145823
129117
120499
112276
95318.8
79826.1
79004.4
73038
60929.9
59285.1
55977.9
58975.5
59503.9
53969.7
47326.2
50948
50665.1
49027.5
147647
165835
149566
120868
124357
86668.4
81541.2
86794.9
79998.8
73959.6
65997.6
62125.9
60693.3
60896.9
60250.1
54864.2
53811.4
58102
59185.3
140223
138367
127106
123186
112711
96023.7
84131.2
83035.6
81595
69218.4
60802.3
53026.5
58010.3
57031.1
46980.6
50900.4
51346.5
50643.3
49701.7
136086
166014
143040
133610
123461
96388.2
89768
90278.2
77931.8
76411.7
68648
64012.3
62846.5
63471.1
59276.8
54922.1
56328.7
59333.9
58771.9
138772
132653
129491
121117
115081
110338
92766.6
88991.8
80983.4
76683.6
68426.3
59984
61900.9
60417.1
47052.4
52503.6
49656.9
50051.9
43792.5
139525
149786
145784
138529
133902
115852
99603.8
89320.2
86207
77700.4
72888.7
68623
67030.1
64923.5
58530
55352.7
57015.9
57544
55535.9
126016
130672
130257
122760
118751
113977
99317.2
93072.9
79881.1
78798.3
68709.5
66613.3
64503.6
59235.2
50159.6
54519.6
51998.2
45692.2
41205.2
141515
163443
150182
139958
131931
118895
102671
92080
91367.7
85595
81913.9
75210.7
70536
65332.8
59257.3
58807.2
58015.5
54345.9
49688.3
128714
141628
137628
129199
122271
112127
102685
98045
85250.5
78859.7
73571.3
70789.3
66507.3
54110.2
54305.7
57084.8
53408.3
42457.7
36936.6
138956
181945
175207
151618
153783
122658
117715
106499
92862.7
86335.3
90089
80765.3
69295.5
65580.4
62100.7
63477.6
57888.8
51321.9
48004.5
116019
149734
139298
138859
126750
120389
109041
101434
88453.5
81054
86569.7
78668
65664
54191.5
60215.6
66121.2
47445.2
35775.5
36846.9
147989
162740
162698
166434
157344
131996
127253
116835
102115
93469.5
88942.3
78295.1
72905.2
68473.8
71345
67180
53832
47758.6
46455.6
128789
140343
143207
143580
133764
125048
114549
102782
96272.5
88481.5
90328.1
76745.5
68145.4
58780.4
68299.8
56447.9
36300.4
36068.5
39720.6
153859
201766
180664
164801
187024
139840
133337
121916
113548
95890.3
93384.1
82644.1
77264.8
72298.7
70511.5
60978
49209
44270.1
45176.3
130165
151888
149366
137805
137052
134418
125369
115730
98461.6
94616
86534.8
82772.5
66664.5
65485.8
66789.1
46498.8
37067.6
39880.5
43701.4
178436
202864
173157
191436
195078
165759
131590
130412
114978
99110.5
94161.1
84529.2
77334.4
71213
67471.6
57384.1
48492.4
46147.3
52214.1
133614
149202
152497
149036
140403
133342
124015
120168
106821
100409
90441.7
79632.2
71672
66383.5
60502.5
45834.1
42640.7
47395
46088.7
181165
234681
194203
173367
179717
167105
138771
142147
116341
104456
95778.3
90298.3
78969.9
74286.6
67129.7
59123.1
48691.1
51508
56012
139480
156163
163458
161238
146008
137972
133848
126553
110422
106605
92224.6
75066.5
78416
69004.7
60034
45777.4
51087
51409.1
45766.2
180134
225978
195216
196838
169337
191986
164895
140364
129013
112765
97132.5
92286.6
81367.1
74462.2
65062.6
57975.3
53834
57138.8
55658
147355
167352
168626
165944
144523
148912
152944
129505
118449
110189
89680.5
79114.6
74733.5
68352.9
54832.5
51850.4
54569.8
51422.1
47074.5
207956
232470
225943
196297
207606
183500
158435
145335
139509
106929
101681
94361
88293.3
74832.7
64112.4
60407.6
59070.4
57995.1
52007.6
182797
186460
183110
180089
163895
162582
146215
132964
127162
106875
95966
82750.3
76570.2
67861.7
57120.6
54730.4
54468.8
49783.3
41221.9
208371
248097
261296
236904
193600
222283
192565
158887
151351
116250
111098
97516.2
85368.5
72376.2
65189.7
63748.2
57803.3
56624.8
51861.8
184994
188151
198245
190375
180733
162615
155064
156163
128161
108507
98859.9
85444.7
76141.7
64228.8
57742.9
55979.6
53938.7
50439
45613.4
310940
276277
268666
305142
271604
252736
180269
179862
142738
133717
117371
95338.1
81034.8
73159.1
69472.4
62366.9
59133.9
57735.1
53099.4
223244
215986
225961
209743
200277
177913
172670
149387
127004
114707
108832
83158.5
78858.9
63250.6
61296.1
57284.1
53611.1
50980.7
46229.1
291323
370753
333610
283865
245432
246846
186855
181988
150769
137901
122365
95545.8
80938.7
73417.1
72322.9
66457.8
63355.1
61924.9
54897.9
230255
230393
230810
220381
214187
195754
172619
152311
135425
123098
111141
84156.2
80965.2
67934.2
60316.8
59184.5
54398.6
50296.3
45297.2
261780
377984
353888
340199
304719
216239
206242
184869
161559
133399
116287
101831
87041.8
74255.1
72085.1
68426.6
65833.4
62840.4
56191.5
231461
197674
244836
252771
216734
203414
190114
159961
148693
126562
107463
93263.3
82018.9
73751.1
64276.4
61093
56396.5
50683.4
47639.8
356891
430536
354665
341858
281688
261013
234805
195587
172038
133535
121712
108267
89981.1
77900
69789.6
69312.7
66711.8
61072.7
56259.8
279148
230959
263906
252408
238635
213829
193065
176171
148173
121172
113575
98879.6
86100.5
76530
68239.9
60862.7
59375.3
53432.8
48554
318827
392876
362051
328180
261118
276010
253025
210487
177908
151749
132320
113577
94204.1
84037.5
73449.1
69601.9
65823.7
62211.9
56353.4
289818
252695
212788
236302
244246
216730
207896
187356
159722
131774
118495
100230
89192.8
77455.1
69936.5
57533.4
58512.3
56424
48663.5
392396
320739
341183
311245
274396
237903
235615
244718
195254
172187
137728
120546
99957.8
85949.4
78130
69487
65610.5
61849
57531.4
332429
246629
230026
218688
226046
209695
209119
204406
173203
148772
119933
111951
90097.6
82022.4
71014.4
58555.3
53236.3
53334.4
48983.5
158799
165472
154949
152491
137250
92923.5
74805.1
67560.6
63546.5
57233.3
53933.8
57168.6
56818.4
64831.7
71421.4
65436.2
52390.1
53216.8
58151.3
124817
314598
187691
138742
101535
79610.2
71161
53128.7
53622.3
53696.7
59565.6
60126
62194.8
65386
64317
59437.9
55030.2
53199.7
57650.8
218452
300464
165084
115434
89486.5
69855.8
48459.2
37854.5
45508.1
46392.2
49575.6
55266.3
57523.6
63157.8
63147.8
56844.5
51501.1
57455.1
58064.3
261060
191311
145440
110294
62925.8
61254
45739.7
33144.7
37594.7
43193.9
48746.6
54474.3
57357.8
64330.1
61619.7
53203.4
52125
56333
60179.3
296458
177052
125356
89592.8
53176.6
40971.8
43644.1
39739
37567.1
42201
46618.8
48534.4
54743
59397.6
58323.3
52260.8
51734.7
55820.3
58606
328263
171717
89517.9
63242.5
47358.9
43065.5
36767.9
30636.4
26861.5
41548.6
49183.4
50747.1
55084.7
57084
56178.9
54588.3
53940.8
54276.3
58460.6
320643
165419
91182.4
59454.9
44989.1
37255.4
31013.2
27807.5
36592.1
39395.7
45291.3
47603
50775.8
59080.1
58310.3
57198.3
53952.7
55044.8
57620
274452
147787
84863.5
50659.1
44700.5
37812.3
29622.5
27329.4
28340.1
40516.5
43821.1
45819.5
53950.9
59391.3
58942.3
57148.4
55348.9
55312.5
56704.6
310331
148812
88699.5
44193.9
42600.9
32026.6
34895.4
29216.9
29231.5
45919.7
45138.6
47007.5
59117.4
63310.9
64583.4
59901.9
60860.6
54501.5
48701.3
327270
148760
87778.8
51535.8
46608.7
35142.5
33670.9
37919.5
28698.1
43664.8
50589.5
57704.6
68582.7
69818
65584.3
63162.2
66459.6
52515.9
51018.2
248290
156474
114487
71630.5
52137.3
42543.8
43363.1
46184.1
48023.3
56845.4
64043.5
69180.9
67881.1
64939.6
68268.5
59381.4
55255
52734.7
42311.5
261734
150333
114214
88677.6
40373.5
42120.1
51729.8
58203.5
67031.6
67638.4
70410.1
70709.4
67408.4
64721.1
66755.3
58409.3
48922.6
46711.8
48987.7
229579
176078
136289
114917
85461.8
99930.2
88749.9
83323.7
75076.7
74233.8
70044.5
66361.4
66186.4
64309.1
52847.3
52823.8
50047
42093.6
44134.1
235579
154078
147248
139503
136865
105015
127504
80637.5
73892.3
71335
64991.9
62095.7
53620.1
49287.9
47279.5
45233.7
44825.1
41590.4
43059.6
188283
138093
153929
173489
154568
126348
108154
77019.2
70396.7
63521.1
55797.2
55143.4
47632.6
45467
42567.6
41334.6
42335.6
40139.3
37021.9
175389
180537
169241
136318
149729
120154
91442.2
76970.1
68696.7
61450.6
54124.5
50060.5
45806.5
43176.5
42953.1
39726
41220.3
39817.1
37248.8
237591
171099
149290
136771
127351
103198
97571.8
84820.9
66046.7
60722.3
55855.1
50839
47721.4
43613.4
39986.3
39200.9
37193.6
40893
38795.7
176525
181411
143391
147373
125549
99505.8
89656.1
87496.5
73096
62627.3
59150.4
54175
49645
46906.6
41882.2
39452.7
38277
37703
40185.2
192255
196289
133506
112615
100974
93944.6
89071.8
87545.1
78484.6
66465.4
61434.6
56723.1
51174.8
48057.5
44026.2
39461.4
38028.2
35153.3
37437.5
150985
144990
129010
121617
110792
81953.5
72584.3
64555.5
57912.8
55157.3
53297.1
52606.1
59304.2
64014.3
59494.2
47743.2
46756.7
49595
48038.7
166380
173930
154026
120398
84591.2
70518.1
60743.5
50402.7
46542.5
50748.4
50544.4
49990.4
57748.1
65158.7
60778.5
46908.6
50942.9
44370.4
47621.2
181606
178708
139771
103539
71260.2
49687.9
33840
32909.8
43821.3
48973
49897.2
48457.2
56357.2
63094.4
55764.7
46697.5
50143.9
49597.2
48721.1
184344
189549
125142
88063.2
49289.4
41569.8
33910
27490.8
37830.4
45116
47347.4
45762.7
55627.7
63276.2
56379.4
45385.3
52330.4
51189
50785.7
191738
191460
108531
71930.4
33053.6
28749.8
30094.4
28278.2
40419.8
40860.4
43598
47597
51256.9
55377.6
54020
48146.6
50908.4
51073.6
50299.2
215974
176972
113303
54971
27655.9
35468.7
21302.9
24396.6
39399
44912.3
45311.1
45193.6
47956.6
53639.6
54261.8
49898.8
51219.3
52228.8
50876.7
196570
178501
87635.7
51608.6
28942
26561.6
24870
26036.7
34490.3
36904.4
39733.3
43792.7
50453
57116.7
55259.8
52021.6
53033.4
52590.4
46827.9
199006
164179
76708.4
43485
31296.4
29258.7
25096.4
25054.1
34919.3
40124.1
42605.3
45848.2
52034.8
60986.3
63123.2
55086.6
53379.2
49591.1
42232.2
197080
149310
77364.9
46625.8
31702
26033.2
32815.5
31888.8
43684.2
47332.5
48931.8
56386
61562.5
59830.8
62802.2
57841.9
48997.1
48559.7
39666
199454
146960
75482.2
48424.7
36693.6
34083.9
31336.1
43059
49332.1
53627
59947.4
62873.5
63439.2
65057.6
61592.4
58436.1
48723.9
40072.4
37150.7
199196
134722
79662.3
53071.6
45532.5
40031.4
56396.2
63635.9
67198.5
64333.1
66973.4
63318.2
67204.7
61240.2
55353.7
48782.9
44217.9
43589.9
36643.7
188202
120645
85139.8
73880.6
64127.6
59423.4
67570.2
66934.6
69009.7
69560.5
68850.5
66220.9
66784.7
52239
46185.1
47238.5
37250.1
41483.9
38210.4
166233
125870
87740.3
101225
82052
73443.6
83493.1
79969.7
75890.8
69668.3
64277
58112.8
48806.6
44898.7
42388.5
41221
37660.5
35958.3
39321.1
158389
107689
95486.7
108920
97939.5
88906.1
78021.6
83554.5
74583.2
60739.4
55189.6
46392
44483.7
38193.3
38351.3
37994.6
37130.9
31528.2
36785.4
157587
103949
92234.3
109111
106841
90873.8
80279.9
72450.3
62326.9
54944.6
49917.2
45599.1
40159.4
39153.9
37617.7
36382.7
37702.7
34798.1
33632.1
143511
108885
89949.5
101475
103619
88495.6
78824.1
65341
58272.1
52479.1
49171.5
46691.5
41324.4
38264.4
37913.7
34631.4
37782.3
37475.5
34365.7
126349
122821
97506
87412.7
93371.7
89043.9
78143
65540.1
60796.5
55316.4
49410.2
46662.7
43777.8
37880.4
37665.6
36561.6
36226.1
37864.5
36823.6
137331
126922
92427.2
88351.5
91725.4
78814.8
75843.5
69427.6
61592.3
58130.7
54028.4
49216
45730.7
41011.7
37945.8
37265
34508.5
35922.2
36973.4
144430
128599
91017.4
86877.8
85034.9
73517.7
73535.9
71062.1
63893.3
59040.8
57025.7
51777.3
45976
43034.2
40645.9
37083.1
35331.2
34560.2
37001.5
204533
193585
143284
124911
113674
96268.8
87870.6
85302.7
78230.1
65904.7
61046.5
56883.2
50498.9
47188.6
43157.4
34306.7
35743
33308
36205.2
159163
132119
93402.6
84687.2
84131.4
70905.7
71962.1
69080.2
63446.1
59537.5
58035
52149.9
45498
42692.1
40538
37360.7
37069.7
33716.1
36380.8
208469
202869
141422
132259
113810
95537.2
88740.9
88517.4
74819
64442.8
60876.9
56932.3
50955.2
45937.2
40074.9
37552.8
35587.9
34162.4
36977.8
156713
123273
100028
89513.8
83894.7
71916.1
72249.8
68433.2
63146.2
59950.7
56364.5
51137.8
46159.1
40144.5
36639.1
35813.8
32143.9
34629.1
36003.4
228292
215851
158397
156189
119553
101156
89071.2
89990.2
75196.6
65949.4
62801.6
56837.1
52682.6
46601.5
41729.9
39147.5
35509.2
39146.8
36856.4
145989
127709
109628
92291.2
85345.2
79246.6
76035.9
70166.6
66235.4
62434.5
57443.9
52077.9
46360.1
40256.8
39298
36871.3
34659.9
36498.5
35229.3
251679
197856
147733
147916
126271
130072
108368
82964.2
73091
69196.7
60287.3
59155.2
54273
50557.4
46779.9
41276.6
41154.9
40623.7
36440.3
150812
130373
98983.8
96428.5
89324.3
86321.7
82678.4
71549.2
64546.3
60995.3
58959.3
54471
47022.9
44224.1
41328.3
36293.5
37108.3
36224
34697.9
185752
191735
170770
167116
153593
126525
96505.5
81801
73134.9
63526.8
61162.8
56546.4
54761.9
50705.4
48504.5
46075.3
47133.5
42278.5
35743.4
145491
115185
102684
111013
102218
90918.8
82296.9
71266.9
61291.9
56953.8
56367.8
51980.7
48559.1
47205.6
42159.7
40450.5
39966.1
37005
35668.3
228823
212741
196908
169437
151077
127597
105807
77520.9
67607.2
64603.6
61652.4
60650.9
52693.8
51327
48612.4
51232.1
49398.3
41576.2
40987.6
137967
106426
107733
120699
117889
97301.7
78974.1
74575.3
66487.4
56558.4
53916.1
50951.1
48585.1
46149.9
44358
44998.1
42823.9
39058.8
36498.2
168870
173136
197176
189610
165189
120412
102971
80780.4
70076.2
66546.6
59407.8
63271.4
57991.7
54407.4
53777
58623.3
45815
42583.6
45837.1
131409
109250
123622
120930
115812
98132.7
85219.9
77577.8
67164.8
60138.7
57759.7
53210.9
50432.6
46772.5
45714.7
46366.7
44620.9
41254.2
38317
179941
176237
160834
170942
134826
95123.8
91569.7
88572.3
77310.2
72868.4
73645.2
59104.6
63090
55479.6
57003.2
55303.6
44488.5
49864.2
44618
149303
123950
114271
115258
104429
92090.7
85975.1
74454.2
67583.9
61478
57985.8
54004.3
51893.5
48607.6
51476.3
48501.6
42787.6
44283.6
38258.1
157844
123802
92453.1
95256.8
121431
88562.6
87486.8
84532.5
80822.5
71084.1
72798.9
66071.1
58122.9
59246.7
62697.3
53617.1
53622.6
46962.8
43633.3
130595
106200
87607.7
91393
94791
88186.4
87565.7
77340.5
70666.6
64636.6
59645.5
54643.1
56965
52605.9
51876.2
47891.4
45487.8
42755
36633.6
216345
121246
75594.5
63249.6
62785.9
79801.2
79035.2
69923.6
77164.4
72325.4
67082.5
69518.8
62696.1
65530.2
60509.9
56075.4
59491.9
55200.4
44169
129057
114979
81130.5
68007.4
76155.3
76696.5
73642.2
71230.3
66149.4
64634.6
64385.6
60232.2
60438.9
53891.1
54008.7
49251.5
48310.8
42308.4
38365.1
184729
128039
82044.7
52560.1
59620.3
64013.4
66972.5
60494.3
65437.6
65929.3
61770.2
67613.7
65154.7
60066.4
56435.1
60933.5
62067
50481.3
46700.3
133753
114848
74691.3
59322.4
54862.9
59857.9
58868
64760.5
69232
60890.9
62908.9
63574
56971.8
55595
56346.6
54098.8
51827.3
44160.9
39121.4
205912
127127
81288.9
61131.2
50007.6
53792.7
56498.4
61286.9
55911.9
58427.6
62787.3
65778.3
64909.6
60605.5
54378.9
59739.2
62781.5
55395.7
42640.2
148357
118969
74812.9
57677.6
49423.1
53559.1
50392.5
58797.4
60744.3
64110
60825.8
65064.3
59864.8
51148.9
56880.8
58731.6
50013
47742.5
40552.3
246420
185299
76768.1
68791.4
54803.4
48738.4
57777.1
66806.5
63537.1
61114.1
62485.9
64828.6
63679.6
61241.1
54141.6
55443.2
58912.1
54976.4
46475.2
166641
137041
81512.2
56214.8
43685.1
43207.5
49113.6
58290.3
59560.6
56741.2
56404.9
61493.3
63915.3
55286.5
52483
60345.8
54337.6
45831.9
42117
248799
179048
100930
66111.2
61797.4
60437
57792
66065.9
66168.2
65273.8
64494.4
62777.7
67904.4
64780.2
57354.6
57308
59398.6
55295.9
49531.2
160042
149493
92713.4
58816.6
47790.8
49106.5
52438.5
62083.5
60076.4
60178.4
59118.3
60462.4
62839.7
57578.6
50200.3
56328.7
56145.1
51127.8
43534.2
283701
192737
110822
73921.1
65810.1
61784.6
58365.1
63596.6
67097.2
70413.6
70805.4
68795.5
70523.8
68097.7
57034.5
57865.4
61208.5
58672.8
51059
170023
151763
99160.7
65675.8
50762.6
52909.1
49238.3
55789.4
58828.5
63765.5
60499.3
64477.6
66501.5
56979.3
53169
56190.9
55903.1
51348.1
47976
203743
313821
153107
81956
73771.3
71780.4
70788
67238.2
65557
73575.5
72578
69881.1
77196.1
72278.5
61743.2
57480.6
60673.9
60284.4
56685.1
209918
165767
105678
68389.9
62822
63121.7
60091.3
58909.8
61345
67509.4
64840.5
66718.6
70507.6
60402.7
52840.8
54845.6
54972.6
50992.3
49932.2
268499
291685
146114
100190
93984.8
75754.6
70172.7
69500.5
73271.5
75595.6
71098
71730.4
84450.4
79960
66821.5
60538.6
60661.5
61909.6
58517.1
207070
173209
109031
76620.7
65243.8
74714.8
69499.1
62866.2
64476.1
69635
69176.7
69833.9
72535.4
66457.4
51877.7
55509.3
56524.1
50569.5
50392.8
298185
268652
155407
119979
102894
96956.5
80677.8
72811.8
76246.8
82934.3
77516.6
70253.8
77583.4
82092.4
71660.1
63760.7
64724.3
63783
61980.4
248760
173275
120560
94111.3
86181.1
88512.5
71843.7
66759.8
67388.4
74933.5
72713.1
69388.9
74735.2
70879.7
58147.2
55137.3
57403.9
51959.4
49827.2
276557
266721
147450
111452
107562
94805
86142
83451.6
81612.8
79014.4
81085.1
77794
80146
84084.8
75598.6
63463.9
64140.1
64628.3
63131.2
206222
173058
132749
97233.6
96650.5
87522.6
88068.7
77563.7
69858.9
78823.5
78203.4
69922.5
78458.1
79239.3
57705.3
52924.3
55618.7
51940.3
50460.3
80931.4
80915.6
80810.4
80565.4
80074.5
79242.9
78541.8
82626.7
123724
72664.9
72610.9
72434.7
72026.7
71150.1
69364.3
66282.6
65345.4
87562.5
57945.6
57914.6
57801.1
57551.8
57068.9
56336.3
56348.9
64931.1
283171
75086.4
75019.5
74838.1
74423.4
73527.6
71672.6
68372.1
66987.4
134152
84305.4
84305.7
84223.4
84024.3
83602.7
82838.5
82070.4
85568
251814
71012.2
70963.6
70769.9
70309.1
69302.9
67215.1
63524.3
62438.1
131536
84699.7
84695.4
84614.6
84423.3
84016.3
83254.6
82331.3
84835.6
199030
79856.4
79789.2
79605.9
79176.7
78228.3
76209.1
72393.9
69470.7
137070
125582
125571
125508
125345
124980
124204
122755
121003
223600
102567
102581
102445
102106
101328
99584.3
95870.8
90012.7
124942
109213
109228
109177
109036
108711
108030
106893
107013
199269
104740
104737
104629
104320
103586
101916
98421.4
93237.4
123901
149453
149508
149492
149386
149127
148597
147617
146990
234527
106786
106965
106934
106683
106092
104711
102051
98336.7
129792
145389
145427
145438
145444
145410
145208
144522
143389
224063
117154
116874
116754
116645
116343
115519
112956
107226
129014
105030
105067
105059
105018
104898
104536
104190
105361
211494
93223.2
93182
93143.3
93063.2
92841.6
92257.3
90783.5
89317
120058
65581.1
65726
65704.5
65660
65522.2
65352.9
65045.5
68991.8
189957
64798.6
64760.2
64732
64668
64451.7
64004.8
63341.9
64451.2
111188
40145.4
40068.2
40034.1
39990.8
40036.9
39620.7
39670.3
47318.3
198213
50627
50582.2
50563.3
50501.2
50272.2
49803.7
49096.6
51723.4
110681
41229.7
41259.1
41214.6
41016.8
40913.3
41649
41799.8
48337.1
231473
40672
40647
40620.4
40523.7
40338.3
39855.4
39063.7
42490.9
121977
17031.4
17001.3
16990
17115.4
17224.7
17323.4
19953.8
35385.6
246497
39473.6
39429.2
39167.3
39016.8
38959.4
38763.5
38109.8
40013.8
135872
69018.7
69006.2
68971.7
68434.3
68122
68092.6
68064.7
68678.5
182130
32938.6
32850.8
32860.7
32751.5
33160
32960.6
31596.9
34325.8
128265
30186.3
30141.4
30470.9
28789.5
24964.4
23244.3