/*--------------------------------*- C++ -*----------------------------------*\
| =========                 |                                                 |
| \\      /  F ield         | foam-extend: Open Source CFD                    |
|  \\    /   O peration     | Version:     3.1                                |
|   \\  /    A nd           | Web:         http://www.extend-project.de       |
|    \\/     M anipulation  |                                                 |
\*---------------------------------------------------------------------------*/
FoamFile
{
    version     2.0;
    format      ascii;
    class       volSymmTensorField;
    location    "345600";
    object      sigma;
}
// * * * * * * * * * * * * * * * * * * * * * * * * * * * * * * * * * * * * * //

dimensions      [1 -1 -2 0 0 0 0];

internalField   nonuniform List<symmTensor> 
23248
(
(96204.6 -7.40582 -19867.7 44654.1 0.227271 47494)
(96232.1 -5.2355 -19866.4 44702 -52.5229 47525.5)
(96340.6 -9.71853 -19872.3 44852.3 -145.412 47595.6)
(96582.3 -35.7206 -19872.7 45210.7 -361.195 47757.5)
(97074.9 -88.3999 -19775.7 45916.7 -890.211 47841.6)
(98344.8 -173.11 -19808.1 47988.9 -2168.91 48957.8)
(101041 -534.822 -19788.6 53019.6 -5369.86 51330)
(106878 -1935.91 -19126.7 66544.9 -13089.5 54896.1)
(119186 -11509.7 -14420.6 120724 -26723.4 55484.2)
(96722.8 30.5738 -24712.5 49476.5 -16.0623 63367.5)
(96743 31.0006 -24705.2 49561 16.137 63384.9)
(96820.5 38.5668 -24698.6 49731.9 85.008 63447.7)
(97311.8 32.7266 -24960.3 50296.4 230.41 63737.1)
(97863.6 -42.6266 -24947.3 51428.2 516.893 64233.9)
(99172.4 -78.8263 -25044.8 54273.2 1292.46 65151.4)
(101781 -272.633 -25126.3 61365 3271.44 67018.5)
(108247 -1088.07 -25983.1 80469.7 8604.81 72297.7)
(121108 -4776.8 -27013.8 132542 26666.1 90665.3)
(90457.4 4.37102 -16868.2 41189.6 5.2089 40276.7)
(90483.8 4.6306 -16872.3 41218.6 -50.4591 40297.9)
(90590.8 11.1907 -16882.7 41370 -145.506 40373.5)
(90802.1 21.2482 -16884.3 41740.4 -358.652 40567)
(91161.5 25.0293 -16708.9 42470.3 -874.538 40688.6)
(92420.8 72.6878 -16772.6 44604 -2166.56 41793.7)
(94963.2 118.933 -16770.9 49820.6 -5448.04 44200.2)
(99467.6 -438.414 -15401.3 63773.6 -13347.6 47285.3)
(112294 -4161.71 -13033.7 121942 -26708.6 49790.7)
(94877.4 35.8294 -15797.9 47414.1 -15.3538 55091.8)
(94889.8 30.1104 -15796.2 47447.8 17.349 55099.7)
(94960.4 24.973 -15793.3 47618.3 81.7149 55168.4)
(95343.2 25.7989 -15913.4 48156.7 201.434 55508.9)
(95871.3 -24.8254 -15926.2 49285.7 517.527 55879)
(97136.5 -81.9634 -15978.8 52143.2 1248.54 56798.5)
(99712.5 -300.869 -16023.4 59432.4 3136.21 58837.3)
(106257 -1190.48 -16575.8 79385.9 8600.09 64578.7)
(120792 -4584.42 -17473.6 133294 27958.4 84271.5)
(86840.6 -7.05612 501.881 40980.2 -0.869203 39724.5)
(86869 -11.0641 498.846 41039 -42.7721 39757.6)
(86975.4 -11.2214 498.316 41196.3 -133.17 39837.4)
(87189.5 -17.2278 520.819 41571.1 -341.058 40047.6)
(87593.2 -67.2091 709.839 42286.9 -839.451 40181.9)
(88839.7 -98.4102 752.908 44375 -2110 41276.2)
(91423.5 -307.459 906.583 49416.5 -5296.8 43706.4)
(97501.6 -1375.08 1908.06 63084.8 -12941.3 47417.8)
(111059 -9056.33 4103.03 116964 -25506.3 48665.9)
(98485.9 38.0338 -9573.69 47759.2 -14.5261 52684.6)
(98488.6 30.5932 -9571.7 47829.6 23.9969 52703.3)
(98527.9 23.0206 -9558.96 48005.9 85.3082 52771.7)
(98972.5 21.0933 -9669.91 48546.9 203.538 53104.4)
(99484.1 -45.5518 -9677.03 49658.4 511.124 53472.5)
(100716 -157.56 -9692.63 52451 1215.7 54376.2)
(103258 -508.293 -9664.61 59515.2 3022.64 56375.5)
(109943 -1664.26 -10086.8 78424.3 8386.51 61984.3)
(125762 -5736.67 -11499.1 128566 28550.5 81825.7)
(107204 -4.85818 -2279.02 46304.6 -14.4132 42755)
(107232 10.2366 -2284.21 46359.1 -52.8665 42779.5)
(107350 26.8514 -2284.69 46512 -138.215 42853.8)
(107563 60.6706 -2278.34 46868.5 -336.08 43041.8)
(107926 121.773 -2051.79 47559.8 -817.279 43200.6)
(109232 299.991 -2045.18 49556.8 -2017.71 44234.3)
(111755 691.676 -1948.54 54345.5 -5049.66 46518.1)
(114932 1181.32 -458.9 66512.5 -12412.2 49313.9)
(125275 4493.84 130.345 120385 -24291.6 50705.6)
(111971 32.9259 395.899 52315.2 -8.15584 57155.2)
(111969 29.2624 392.864 52298.7 22.717 57154)
(112046 18.4036 391.539 52467.1 86.0008 57225.8)
(112398 16.3578 285.2 52956.1 201.256 57484)
(112941 -47.4357 302.926 54025.2 501.436 57841.8)
(114245 -175.676 340.513 56691.1 1183.67 58698.1)
(116952 -551.76 423.443 63466 2904.31 60588.4)
(123289 -1481.57 199.916 81871.2 7929.67 65519.8)
(136599 -4503.54 -1620.55 130672 27101.4 84157.7)
(140212 -23.3067 22650.2 53972.7 4.70555 51085.1)
(140251 -21.7909 22645.3 54063.3 -35.4613 51120.2)
(140389 -20.7238 22657.1 54213.4 -119.294 51201.7)
(140665 -13.6608 22685.1 54557.1 -309.034 51387.2)
(141239 -36.1783 23000.9 55229.4 -759.324 51669.4)
(142711 -53.7394 23112.2 57061 -1882.84 52636.6)
(145749 -173.059 23405.8 61366.2 -4642.12 54773)
(153577 -1434.06 24935.9 72547.7 -11371.9 58688.3)
(161569 -7844.81 20447.7 116550 -24729.9 58575)
(118626 36.4501 -573.004 53155.6 0.129668 56009)
(118617 25.2936 -564.7 53208.7 33.1351 56021.6)
(118743 14.833 -559.426 53398.1 88.328 56098.7)
(119034 -8.07213 -548.317 53854 210.431 56285.4)
(119652 -69.8765 -516.082 54936.8 496.95 56666.7)
(121054 -192.699 -430.83 57581.7 1146.83 57540)
(123869 -591.632 -227.153 64090.1 2749.92 59430.1)
(130947 -2164.93 -276.19 81239.7 7004.95 64284.9)
(145130 -8291.84 -2297.84 125967 22809.4 80399.6)
(71960.7 0.860184 7119.6 36195.9 -10.6765 36440.1)
(72011.8 14.2354 7116.31 36334.6 -59.5043 36484.8)
(72123 39.2516 7118.89 36510.4 -156.866 36572.9)
(72326.4 97.2007 7119.8 36910.1 -379.247 36780.5)
(72469.2 197.72 7405.27 37680.4 -912.43 37121.8)
(73747 503.625 7353.61 39903.5 -2254.49 38215.7)
(75980.9 1257.93 7292.82 45173.4 -5629.84 40607.5)
(78572.4 3458.81 8624.31 58594 -13514.7 44166.7)
(94195.4 -6547.65 34687.4 114096 -31014.9 62890.2)
(95620.3 29.2356 8322.28 45693.1 2.48433 47957.2)
(95627.8 29.0383 8318.49 45762.7 37.1038 47970.1)
(95737.3 19.0988 8324.37 45954.9 96.3499 48052)
(95990.9 -2.98027 8342.8 46447.9 225.118 48247.3)
(96493.5 -62.0785 8381.3 47627.1 520.146 48658.8)
(97693.7 -188.395 8453.29 50543.8 1216.9 49609.9)
(100289 -496.378 8632.55 57906.9 2982.11 51793.3)
(106830 -1515.17 8928.38 77532.1 8108.3 57653.7)
(121751 -6056.82 8143.56 126842 25854.4 77429.1)
(86673 -31.2382 18084.9 37552.5 19.4021 33609.7)
(86727.4 -18.6928 18083.7 37647.9 -25.2131 33644.5)
(86853.7 7.61172 18091.4 37823.5 -115.08 33730.7)
(87136.6 65.465 18111.7 38232.8 -317.107 33936.6)
(87996.1 194.824 18220.6 39201 -808.406 34427.7)
(88396.4 500.65 18361 41034.5 -2012.39 35114.3)
(91288.8 1358.38 18416.8 46369 -4971.32 37606.3)
(99456.2 3305.75 19255.4 61238.6 -12101.3 42467.3)
(114323 8845.61 20924.3 118575 -23253.9 46733.6)
(109983 34.2108 14451.1 49687.7 20.7305 51859.7)
(109967 12.6229 14453.3 49719.4 41.0928 51861.3)
(110083 -5.01906 14463 49922.2 100.975 51944.9)
(110358 -40.3796 14488.7 50434.3 236.85 52140.4)
(110957 -124.976 14531.6 51654.7 540.7 52579.9)
(112235 -315.615 14665.3 54625.2 1246.63 53497.9)
(114827 -773.052 14952.1 62088.2 3058.95 55641.1)
(121179 -1975.36 15273.8 81943.8 8150.75 61254.8)
(134716 -5416.28 14741.6 132409 25847.3 80213.6)
(118070 -6.11693 35700.1 51460.2 -16.5791 60252.1)
(118123 8.5058 35695.4 51632.9 -63.3008 60297.6)
(118336 29.8217 35696.2 51816.2 -165.489 60361.2)
(118636 86.0547 35729.4 52199.5 -391.028 60569.3)
(119274 375.69 35735 53080.3 -918.432 61027)
(120150 479.631 37096.8 54901.6 -2275.52 62347.5)
(122825 1331.42 36966.3 59660.6 -5534.82 64500.3)
(124011 2353.33 39147.7 71533.6 -13605.8 68365)
(130124 4134.03 42042.3 124769 -27839.6 70871.2)
(124659 17.0865 14121.7 53184.8 -8.35627 53852.7)
(124655 5.93853 14114 53256.9 35.9202 53860.6)
(124783 -24.6786 14118.6 53464.9 92.6899 53929.2)
(125083 -78.9844 14145.4 53984.1 216.354 54114.4)
(125701 -207.817 14225.4 55222.2 489.402 54531.5)
(126993 -503.309 14389.8 58199.1 1153.33 55416.9)
(129690 -1224.33 14706.6 65581.8 2753.59 57493.3)
(135460 -3448.41 15267.5 85102 7242.8 62783.9)
(144737 -10726.8 15213.2 134238 22587.5 80624.5)
(109169 -43.496 34702.1 44845 -0.973578 46606.3)
(109208 -13.9669 34705.9 44949 -47.6294 46652.4)
(108447 -5.27697 34707.9 44787.2 -125.131 46349.8)
(108789 80.6139 34763.4 45225.1 -341.079 46695.5)
(109396 238.75 34829.4 46158 -861.154 47198.6)
(110980 641.24 35029.4 48398.1 -2129.95 48290)
(114207 1840.98 35300.2 53732.4 -5144.4 50779.1)
(123842 4051.61 37214 68539.8 -12602.5 56213.7)
(129984 9157.94 37555.3 126482 -24621.8 58409.9)
(121302 20.7538 24984.5 54699.3 9.62409 62918.3)
(121285 2.75605 24987.9 54704.8 35.6468 62909.7)
(121382 -22.013 25022.2 54908.1 98.3551 62965.8)
(121650 -68.6252 25067.7 55444 236.616 63162.2)
(122207 -185.445 25144 56751.2 532.893 63571.9)
(123359 -433.22 25254.7 60001.8 1266.83 64436.6)
(125835 -956.047 25614.2 68109 3210.18 66571)
(131759 -2634.8 26329.9 89327.5 8188.55 72355.4)
(144872 -7795.22 25407.2 142977 23766.1 89518.5)
(124804 -1.5842 57314.3 50682.6 -0.77104 67414.3)
(124777 16.9709 57303.4 50793.1 -66.1966 67464.1)
(124514 7.57279 57466.7 50722.3 -180.611 67299.6)
(124852 74.7352 57548.6 51126.5 -404.404 67556.7)
(125478 125.392 57725.4 51969.1 -963.402 68104.7)
(126169 -91.8596 58024.4 53880.1 -2564.51 69533.8)
(120782 1528.66 54132 58257 -5530.91 68494.6)
(123483 1611.61 58690.6 71820.1 -14376.3 77096.2)
(140520 3294.66 52308.6 132757 -27786.3 68465.6)
(132458 39.5765 35927.9 57581.8 -3.16084 69604)
(132457 18.3861 35923.1 57671.2 34.1049 69613.9)
(132564 -7.30418 35942 57903.8 99.0745 69675)
(132860 -46.5953 36011.3 58461.9 248.037 69875.3)
(133468 -189.083 36125 59765.7 519.842 70301.9)
(134615 -547.424 36164.5 63061.5 1057.25 70951.4)
(136959 -1249.26 36285.7 71575.8 3014.6 72217.4)
(142694 -3386.83 36944.1 93111.5 8717.9 78143.4)
(155018 -10982.7 34593.1 145305 25160.3 94968.9)
(108040 -61.8976 45820.5 47262.9 3.4965 60287.4)
(108174 -16.0422 45860.7 47346.8 -61.4558 60348.6)
(108541 3.18239 45908.6 47559.1 -217.773 60309.8)
(108809 153.327 45945 48009.8 -462.512 60568.4)
(109474 368.501 46045.1 49152.6 -1134.75 61119.3)
(111485 364.339 47145.8 52639.1 -2884.3 63196.6)
(160523 2628.75 45971.4 74097.7 -3268.18 72923.6)
(126807 4190.4 52477.6 77135.9 -14140.2 71710.9)
(138311 7007.4 53826.4 140749 -26312 71249)
(142609 2.83824 44501.6 59623.5 -4.53866 73855.9)
(142640 3.31833 44505.1 59724.1 41.6115 73879.8)
(142747 -7.9624 44533.6 60008.6 119.705 73954.7)
(143021 -60.1872 44591.4 60701.9 297.851 74169.5)
(143680 -245.061 44722.3 62317 711.022 74704.3)
(145542 -1012.59 44886.5 65762.3 1611.72 75970.1)
(147778 -3051.36 41608.4 72717.6 1978.46 76197)
(154747 -2743.26 44949.4 98144.5 8573.78 83911.4)
(165823 -10494 41142.3 151416 26140.7 99361.3)
(159842 -10.095 64425.2 56160.7 -8.06417 68301.2)
(159921 39.5217 64442.8 56228.9 -76.2061 68350.6)
(160097 104.938 64478.6 56420.8 -200.373 68460.3)
(160441 250.405 64522.9 56869.7 -471.583 68682.1)
(161199 613.403 64599.8 57913.1 -1078.52 69124.8)
(163768 2963.98 64089.9 60050.9 -1629.76 69106.9)
(141178 3284.51 55536.2 61995 -6187.15 70176.5)
(161942 3082.82 64770.3 79221.6 -15508.9 78206.8)
(176661 22256 63362.6 147548 -22811.5 75518.3)
(170538 28.4981 56993.4 64810 7.32271 81152.9)
(170564 3.31172 56993.3 64938.6 47.4738 81184.6)
(170697 -25.0118 57024.3 65234.1 125.078 81275)
(171002 -84.6425 57098.7 65941 292.6 81488.2)
(171669 -196.69 57260.3 67571.7 691.638 81973.1)
(172949 -439.937 57675.2 71367.7 1553.42 83210.6)
(176197 -1002.64 59280.7 80773.9 3724.8 86204.7)
(181562 -2983.11 58879.1 104599 9282.62 90702.7)
(193946 -12219 52968.1 160326 24571.9 104550)
(183009 -76.556 101962 62444.9 -16.5199 104202)
(183121 -21.5736 101991 62488.3 -105.515 104253)
(183263 -11.5789 102020 62665.8 -276.566 104346)
(183563 17.1765 102059 63083 -635.431 104553)
(184177 116.086 102095 64022.5 -1419.54 104970)
(184785 484.769 101542 66222 -3177.13 105526)
(187772 1048.27 102148 72094.1 -7582.02 107898)
(193226 1052.99 104228 88541.9 -17951.8 112356)
(200586 -14747.2 108404 163392 -40032.1 116568)
(208489 -12.0391 67939.2 68793.8 11.6024 80949.1)
(208568 -12.4618 67995.3 68849.6 59.7293 80962.5)
(208727 -27.2993 68044.3 69158 139.253 81066)
(209063 -57.3585 68138.4 69916.8 318.142 81293.2)
(209700 -111.006 68311 71691.4 717.193 81775.9)
(210840 -305.511 68621.8 75925.8 1611.63 82811.8)
(213089 -1188.59 69036 86255.2 3736.58 85012.4)
(217698 -4795.46 68826 112016 9275.39 90230.2)
(226520 -19671.4 60461.2 171559 24841.6 104823)
(233619 14.5307 109361 60446.1 -2.97868 77483.7)
(234095 70.759 109528 60595.2 -87.1665 77643.8)
(234291 163.69 109557 60825.6 -235.212 77727.3)
(234680 378.449 109592 61344.5 -540.074 77913.9)
(235478 868.981 109620 62531.2 -1228.64 78312)
(237044 1976.31 109601 65299.8 -2824.59 79168.4)
(240095 4442.64 109609 72245.6 -6530.54 81005.9)
(243950 9341.21 110015 93992 -13637.1 83643.9)
(234409 7987.43 99254.6 188417 -23709.4 97719.2)
(231474 -4.86388 86010.9 70545.2 14.4832 87335.6)
(231496 -9.84079 86007.2 70748.2 71.2005 87403.7)
(231654 -23.7312 86053.2 71133.9 164.188 87522.1)
(231990 -56.9387 86139.2 72045.1 370.491 87761.6)
(232647 -145.232 86280.6 74157.1 826.659 88260.2)
(233905 -433.606 86479.3 79124 1852.97 89303.8)
(236253 -1553.85 86554 91118.9 4362.1 91546.7)
(240727 -6310.74 85047.8 120185 11188.1 96975)
(254159 -25962.2 71110.6 178939 29519.6 115421)
(187870 11.4036 114639 61980.7 7.80143 109706)
(187626 59.3676 114425 62047.8 -119.115 109608)
(187778 133.289 114437 62290.4 -349.227 109679)
(188122 310.545 114439 62897.3 -811.354 109879)
(188821 712.375 114400 64291.3 -1837.79 110308)
(190216 1614.49 114261 67533 -4161.49 111210)
(192749 3568.45 114133 75751.1 -9422.8 112912)
(195912 6000.62 115681 102554 -20843.8 114842)
(204401 -21206.4 123730 224408 -31076.8 117391)
(247910 -1.11934 97190.4 78241.4 6.37337 113098)
(247945 -20.0074 97221.4 78346.9 72.2061 113147)
(248064 -73.3575 97253.2 78746.4 172.978 113260)
(248327 -180.646 97301.4 79733.9 386.293 113491)
(248816 -427.643 97350.3 82040.2 859.646 113957)
(249692 -1078.81 97313.3 87474.7 1958.01 114913)
(251216 -3233.07 96789.9 100541 4822.72 117069)
(254172 -11809.5 93823 131823 13586 123237)
(264513 -42582.1 78783.3 199812 39271.4 143735)
(224617 238.905 179895 78427.2 194.332 224194)
(223666 163.494 180115 78413.6 -41.4583 225329)
(223851 225.992 180137 78640.7 -292.993 225394)
(224157 520.063 180151 79221.8 -679.484 225604)
(224766 1179.06 180111 80535 -1523.9 226002)
(225933 2638.84 179959 83537.7 -3402.11 226752)
(227707 5778.14 179975 91169.9 -7521.65 228024)
(227260 10061.9 182168 117802 -15523.4 228432)
(217890 -14510.4 168283 235910 9043.8 212541)
(226639 0.520608 120052 89439.5 6.10648 199168)
(226565 -25.728 120081 89563.1 79.8034 199242)
(226638 -117.102 120108 89976.3 183.237 199377)
(226836 -284.549 120150 90976.9 401.517 199635)
(227193 -658.284 120168 93301.3 879.908 200106)
(227807 -1595.91 119963 98742.8 2000.8 200916)
(228921 -4801.22 118608 111763 5043.76 202217)
(231897 -17296.6 112230 142897 14786.9 205154)
(250060 -60751.7 85456.9 212903 42607.1 214053)
(109320 15.044 122798 88929.3 37.3452 417885)
(109340 95.4371 122797 88943.4 -194.594 417976)
(109445 245.333 122783 89185.1 -541.476 418057)
(109668 566.216 122729 89768.5 -1233.53 418216)
(110135 1267.05 122580 91071.2 -2721.51 418496)
(110991 2780.08 122320 94027.1 -5957.31 419023)
(111898 5813.66 122510 101647 -13113.2 419943)
(109194 7831.57 127056 129244 -30699.2 419741)
(123343 -54008 140070 255760 -62825.5 372326)
(148339 -14.4611 98948.7 91733.5 20.9473 295313)
(148346 -61.8337 98943.2 91918.7 74.5016 295358)
(148415 -166.829 98937.3 92384.9 170.976 295478)
(148579 -386.02 98914.9 93497.8 371.418 295703)
(148901 -894.345 98804.5 96050.5 772.672 296071)
(149352 -2170.96 98232.2 101928 1755.26 296819)
(151067 -6267.58 96645.1 115582 4421.33 297380)
(158177 -22123.5 90348.3 146988 12265.3 296176)
(196857 -75473.1 67962.3 215169 34820.5 286852)
(57370.3 18.8336 6286.2 79170.4 -6.20633 346536)
(57422.6 211.253 6282.71 79275.7 -116.058 346600)
(57564.4 543.716 6275.83 79602 -304.225 346675)
(57890.5 1237.57 6256.14 80368 -691.546 346799)
(58588.9 2750.24 6214.25 82095.6 -1515.06 346965)
(59905.8 6070.34 6188.32 86121.6 -3285.62 347151)
(61356.8 13215.7 6711.81 96836.3 -7047.67 347191)
(57638.1 25276.3 11215.4 135134 -13851.9 345786)
(55156 -14207.4 28291.1 302702 1376.13 334391)
(91050.7 -0.0360712 -2019.32 88607 -7.88176 326594)
(91079.9 -93.3042 -2021.82 88777.1 55.7365 326648)
(91172.5 -245.289 -2030.67 89317.7 138.145 326733)
(91380.9 -556.043 -2049.9 90602.2 297.942 326844)
(91830.9 -1255.26 -2096.71 93558.3 647.081 326936)
(92864.2 -3006.92 -2233.05 100444 1517.3 326736)
(95711.7 -8204.86 -2600.54 116766 4136.12 325424)
(106095 -25542.6 -3768.82 155071 13585.1 321493)
(153002 -77159.5 -6103.85 235863 40747.8 310378)
(91540.7 16.9193 -66172.8 91022 9.38602 416633)
(91590.4 229.599 -66187.6 91129.6 -174.528 416655)
(91720 590.237 -66189.5 91402.2 -444.716 416700)
(92015.5 1331.85 -66181.2 92031.5 -989.014 416759)
(92635.9 2930.62 -66151.4 93431.3 -2141.48 416772)
(93755.9 6397.35 -66002 96633.7 -4619.29 416627)
(94797 13848.4 -65330.5 104939 -10066.5 416041)
(90317.1 28230.6 -61902 134044 -23393.8 412766)
(69889.2 16690.8 -37659 283186 -59595.3 374202)
(85369.3 -3.04709 -4.06217 87531.3 2.47989 335270)
(85400 -90.4501 -8.41349 87697.3 -2.42534 335300)
(85503.3 -231.442 -13.4424 88235.6 -8.64267 335389)
(85735.4 -518.973 -24.0195 89508.1 -19.4328 335540)
(86235.1 -1154.15 -47.7082 92397.5 -40.136 335691)
(87365.4 -2711.69 -104.675 99016.8 -72.9553 335574)
(90270.1 -7271.43 -264.265 114540 -187.205 334091)
(99934.7 -22893.7 -1416.89 151512 -398.966 327429)
(137701 -73460.6 -7912.44 237393 3957.75 307194)
(98861.3 -1.96277 -31014.2 51029.8 -19.0134 69672.2)
(98875.7 2.43033 -31005.5 51077.9 -65.9249 69702.4)
(98948.4 0.671825 -30994.5 51224 -169.746 69757.2)
(99154.3 -51.1155 -30971.4 51561.6 -421.323 69847.4)
(100145 -59.7749 -31335 52442.3 -1016.44 70593.4)
(101136 75.7088 -31253.3 54410.2 -2636.26 71603.3)
(103302 -182.688 -31006.5 59202.8 -6473.85 73691.1)
(109743 -896.433 -32040.2 73430.7 -16168.6 79382.2)
(119082 -3527.17 -32583.3 130813 -36509.2 79370)
(65068.2 1.62594 -21804.5 38900.2 -25.2706 53900.8)
(65056.4 54.3483 -21796.6 38995.1 -98.6557 54005.4)
(64832.9 58.6687 -21680.1 39207.8 -227.516 54224.7)
(64960.3 -94.2583 -21618.9 39772.9 -457.967 54337)
(73012 -236.44 -18114.4 42470.7 -686.841 51248.6)
(67430.2 81.2299 -22064.1 43786.5 -3077.28 56737.1)
(69780.3 -1086.16 -21487 50979.5 -7369.8 58246.7)
(86321.5 -3820.9 -18162.7 82260.5 -6886.52 61981.8)
(110322 -19134.9 -15958 194260 -9358.85 76292.7)
(85097.5 2.48014 -18638 44463.6 34.2914 53857.8)
(85277.8 114.318 -18553.9 44659.5 51.8165 54159.9)
(87260.3 141.87 -15352 46765.2 -135.07 58587.2)
(86923 -183.257 -15561.4 46701.3 -468.662 57909.5)
(84738 -672.38 -13495.2 47076.5 -1204.38 56589.3)
(88063 -476.372 -18537.2 51147.5 -1575.71 56161.7)
(91125 -1255.83 -18448.3 59687.8 -4000.8 58277.5)
(95494.8 -5353.95 -11634.8 75619.4 -18001.9 65685.5)
(113826 -30767.5 -7380.23 143876 -33893.1 64164.8)
(83418.5 68.9056 -23948.1 46858.9 -252.76 65353)
(83498.4 49.2787 -23910.3 47053.6 -234.637 65103.3)
(87946.5 -321.015 -26736.3 48534.3 -24.5205 68465.6)
(88162.1 -115.83 -27070.8 49047.8 -502.031 68983.1)
(88450.6 -81.0793 -26999.1 49856.3 -1360.74 69364.5)
(85435.4 -283.287 -23512.4 51039.9 -3738.36 67029)
(87913 -1487.4 -23288.7 56861.3 -8245.93 69299.3)
(98634.6 -4900.45 -25827.9 76405.9 -19284.4 78217)
(109838 -19027.2 -21075.2 153463 -38879.2 73346.9)
(78652.4 7.71806 -32255.5 47907 -16.3295 77186.6)
(78627.9 159.914 -32316.6 47929.3 -174.249 77295.8)
(78668.6 115.912 -32005.9 48115.2 -303.803 77267.6)
(79033.6 -71.2931 -31265.7 48415.9 -582.461 76493.6)
(79536.6 -414.324 -31177.2 49335.2 -1301.76 76858)
(80810.8 -573.003 -31707.4 51734.1 -3452.07 78728.9)
(83206 -1527.45 -31433.6 57642.7 -8451.45 81141.5)
(88671.2 -3634.4 -31242 76401.9 -20666.1 85918.5)
(99413.8 -11906.5 -24830.8 153134 -41198.4 79991.3)
(79036.3 -10.2375 -11315.2 41869.8 -18.8678 48862.3)
(79025.5 -15.5344 -11313.7 41961.5 -100.333 48912.1)
(78981.6 -83.5854 -11386.3 42218.4 -230.534 49331.4)
(79318.4 -288.554 -11425.3 42665.3 -508.075 49606.7)
(80072.4 -676.498 -11417.2 43721.6 -1231.76 50114.5)
(81400.7 -1622.56 -11242.2 46237.8 -3051.88 51241.3)
(84317.5 -3901.71 -10924.6 52661.6 -7572 53858.6)
(90888.9 -10069.4 -10215.8 72446.3 -18714.9 59703.5)
(87158.8 -21764.8 -12520.2 153069 -41264.8 66110)
(53547.6 0.591361 -12841.8 34576.1 -29.4017 47486.1)
(53631 -20.128 -12870.4 34708 -118.338 47569.6)
(53988.7 -86.1357 -13022.5 34997.3 -264.263 47870)
(54122.1 -221.263 -13035.8 35506.5 -614.181 48351)
(54512.4 -553.382 -12858.3 36544.3 -1455.3 48740.8)
(55733.1 -1339.52 -12643.6 39210.9 -3563.22 49941.2)
(58397.9 -3261.31 -12192.8 46234.1 -8737.96 52671.4)
(63990.5 -6836.23 -12362.7 68761.7 -21427.4 58487.2)
(90940.1 -20044.1 -12731.3 157455 -36215.3 56799.1)
(81364.2 1.47519 -38433.9 45307.8 -24.3458 69721.8)
(81409.9 -10.3664 -38434.6 45425 -99.2586 69768)
(81487.5 -17.7205 -38441.7 45599.7 -254.053 69858.2)
(81745.2 -78.6202 -38571.4 46088.9 -608.477 70357.2)
(82217.2 -219.74 -38616 47096 -1477.54 70903.6)
(83342.9 -486.422 -38569.2 49529.4 -3602.91 72154.1)
(85733.2 -1118.49 -38516 55726.5 -8701.73 74841.1)
(91122.6 -2171.85 -39529.9 75384.4 -20561.8 79781.9)
(102760 1365.08 -41847.7 154294 -41629.9 80336.1)
(59518.3 18.0426 -5073.41 31129 -13.5474 30989.3)
(59568.6 -35.0904 -5068.83 31205.3 -90.3397 31032)
(59671.7 -113.559 -5061.08 31401.7 -234.545 31138.3)
(59962 -285.862 -5065.95 31917.1 -575.136 31438.1)
(60149.6 -787.748 -4963.82 32991.4 -1364.45 31993.6)
(61416.4 -1924.98 -4797.21 35692.7 -3259.52 33275.2)
(64182.5 -4403.19 -4219.54 42613.8 -7846.46 35885.9)
(69787.6 -11577.4 -4215.31 64159.5 -17758.6 40588.4)
(71669.8 -15226.6 -19715.4 157535 -31233.8 50550.4)
(77102.8 -8.32857 -44142.8 40079.9 -3.04654 60706.1)
(77136.2 -15.0152 -44150.6 40156.1 -101.408 60741.5)
(77236.5 -21.984 -44161.2 40355.3 -282.465 60849.5)
(77400.3 488.456 -44432.1 40829.9 -920.227 61321.6)
(78609.4 -134.92 -42675.5 41984.1 -1608.22 60084)
(79389.1 -647.127 -43454.5 44633.5 -3678.31 62166.9)
(82183.7 -847.397 -43529 51375 -8992.41 64893.6)
(88085.8 -1797.91 -43544.9 72155.5 -20591.6 68996.8)
(101671 2610.66 -36921.1 154715 -35424.3 63146.8)
(114044 44.1888 -16521.8 40793 -4.77038 27978.5)
(114126 -44.376 -16518.5 40909.4 -71.6953 28021.3)
(114250 -169.003 -16514.7 41119.1 -206.178 28120.8)
(114587 -459.948 -16533.7 41593.8 -491.061 28371)
(114701 -1174.9 -16705.8 42670.1 -1114.41 29036.8)
(116394 -2483.81 -16387 45244.2 -2677.88 29999.1)
(119283 -6147.23 -16136 51832.8 -6211.78 32538.9)
(123699 -15045.2 -16465.2 71468.6 -13826.7 36627.3)
(113819 -33476.5 -23879.8 167646 -19982.2 44512.5)
(118545 -1.09955 -37051.2 48714.9 -11.9984 52799.7)
(118586 -74.2893 -37046.8 48796.1 -90.3662 52833.9)
(118704 -200.806 -37046.3 49003.4 -237.047 52924.8)
(118981 -475.877 -37035.1 49500 -556.349 53139.4)
(119550 -1096.21 -36973.1 50650.4 -1300.68 53615.1)
(120718 -2513.7 -36898 53372.9 -3069.84 54768.3)
(123223 -5869.55 -36683.9 60303.2 -7100.59 57031.8)
(127044 -13696.4 -37303.3 82462.7 -15583.2 60256.3)
(122668 -21167 -46428.7 184845 -17513.3 66479.9)
(88916.5 45.117 -47780.6 54510.2 -37.2401 103099)
(88859.9 -50.2276 -47706.6 54542.7 -126.231 103040)
(88954.1 -181.209 -47699.6 54737.4 -307.988 103131)
(89192.2 -447.249 -47685 55227.1 -702.912 103341)
(89748.9 -1038.74 -47661.6 56365.4 -1586.41 103847)
(91030.7 -2322.45 -47742.3 59096.5 -3656.22 105325)
(92880.1 -5206.34 -47479.8 65770.2 -8309.03 107368)
(95496.5 -10807.9 -48728.9 87089.4 -18335.4 110036)
(97306.5 -3991.67 -54977.5 182152 -23428.2 106426)
(89836.1 -10.1001 -56658.6 66868.6 -0.0441785 171342)
(89921.8 -96.8681 -56760.4 66916.9 -119.869 171576)
(90022.2 -249.98 -56760.7 67116.4 -304.134 171672)
(90247.2 -566.854 -56744.3 67581.9 -695.018 171865)
(90723.5 -1259.14 -56673.4 68638.3 -1562.53 172241)
(91680.2 -2757.61 -56528 71051.8 -3520.2 173104)
(93553.2 -5984.49 -56647.9 77018.1 -7916.58 175388)
(95418 -12315.1 -57530.4 95421.2 -17448.8 176927)
(94134.3 -8550.23 -62449 178324 -31932.7 168679)
(69062.2 -10.9966 -29674.5 69743 -7.50561 212938)
(69100.9 -125.396 -29674.9 69797 -142.548 212991)
(69208.5 -319.107 -29666.5 70007.4 -364.289 213065)
(69450.8 -714.998 -29641.3 70502.5 -820.221 213225)
(69963.6 -1564.48 -29577.2 71609.9 -1809.05 213568)
(71002.9 -3411.77 -29442.3 74123.9 -3979.69 214306)
(72869.7 -7405.58 -29270.5 80274.1 -8780.69 215798)
(74862.5 -15312.3 -29904.9 98654.4 -19632.6 217811)
(74484.2 -18889.4 -36863.9 177153 -44763.4 216136)
(61336.2 -11.9764 -2632.1 66677.9 3.237 198369)
(61385.8 -168.32 -2625.96 66756.4 -154.318 198416)
(61514.3 -425.981 -2618.57 66998.7 -396.402 198477)
(61804.3 -947.308 -2600.88 67564.6 -882.948 198610)
(62419.7 -2058.46 -2554.3 68823.4 -1923.33 198891)
(63674.6 -4457.88 -2447.02 71675.2 -4170.01 199487)
(65966.6 -9622.31 -2329.31 78668.3 -9058.54 200685)
(68763.8 -20021.5 -3002.92 99626.6 -20081.6 202617)
(70816 -25828.9 -10083.3 190665 -49244.4 203703)
(64279.8 -25.5596 -2626.45 60622.7 -6.49518 148115)
(64334.7 -222.324 -2621.84 60711.7 -103.554 148159)
(64479.9 -554.989 -2626.75 60990.8 -261.136 148238)
(64806.2 -1221.83 -2641.26 61631.1 -575.053 148423)
(65498.1 -2626.9 -2666.25 63045.5 -1252.78 148840)
(66885.9 -5630.94 -2668.75 66221.5 -2700.21 149577)
(69420.9 -12052.6 -2747.77 73940.7 -5782.92 151034)
(72570.1 -25127 -3649.24 96277.8 -12087.7 153622)
(71327.5 -40468 -8320.85 181057 -23189.1 160897)
(65474.5 -21.6904 936.45 65810.7 -12.224 181880)
(65533.8 -217.994 933.904 65907.9 -80.0792 181934)
(65677.8 -542.134 928.812 66178 -198.626 182035)
(66000 -1185.41 915.641 66791.2 -433.246 182230)
(66671.8 -2525.61 899.159 68126.6 -931.989 182593)
(68029.5 -5360 869.296 71099.3 -1984.86 183467)
(70472 -11360.2 741.602 78235.8 -4180.3 185088)
(73375.7 -23536 -213.37 99220.4 -8268.96 187368)
(73615.5 -35532.6 -2523.37 187449 -14125.2 188302)
(60769.1 -14.9335 27691.3 59266.2 -6.1166 155284)
(60827.7 -243.081 27697.7 59353.7 -99.5713 155333)
(60979.2 -609.818 27692.1 59643.4 -245.72 155430)
(61317.6 -1327.2 27675.7 60306 -531.788 155631)
(62026.3 -2811.93 27638.3 61747.7 -1120.42 156035)
(63445.3 -5932.43 27554 64944.6 -2343.22 156833)
(65958.3 -12501.4 27303.3 72645.1 -4888.97 158315)
(68666 -25624.5 26230.2 95311.3 -10356 160655)
(68211.9 -38456.7 20942.7 185398 -24197.5 164612)
(90496.8 -59.4703 -16061.5 46168 24.9811 54325.7)
(90497.5 -54.5253 -16050.9 46195.4 61.1162 54331.2)
(90612.5 -65.8025 -16027 46399.6 157.923 54370.1)
(90988.5 -86.339 -15964.5 46901.8 286.674 54378.5)
(91512.6 -61.592 -16018.5 48020.1 584.662 54787.5)
(92821.5 -14.6705 -16110 51005 1210.84 55658.5)
(95576.4 -50.2545 -16256 58492.7 2996.49 57643.1)
(102127 38.0468 -16694 78452.1 7744.49 62474)
(116457 -933.927 -20158.6 133236 22958.4 82897.3)
(68801.1 -37.7222 -18022.5 36869 -3.868 42985.3)
(68821.2 -43.061 -18010 36898.5 33.4792 42975.5)
(69053 -60.9314 -18006.8 37189.5 114.246 43001.2)
(69267.3 -88.1496 -18051.1 37739.4 343.404 43233.1)
(70467.1 -253.936 -17821.2 38962.7 799.074 43541.1)
(70931.8 45.8155 -18159.9 42615.2 1341.94 44826.2)
(73705.1 -269.37 -18302.4 50774.8 3578.5 47474.1)
(80576.2 441.971 -18215.2 68126.2 9528.23 54089.7)
(97645 30.7828 -18498.3 123651 23158.1 76666.3)
(82568.5 321.698 -22438.6 44456.7 37.7179 56614.9)
(82607.4 268.899 -22423.3 44651.9 150.949 56839)
(85382.3 -292.393 -22182.2 45706.9 344.136 58255.8)
(85920.7 -61.7193 -22266.9 46460.8 255.372 58942)
(86948.7 70.8857 -22494.4 47771.6 540.621 59410.2)
(85231.5 980.934 -22638 49900.4 1420.28 59098.8)
(87599.4 1350.86 -22510.1 57924.5 3770.13 61062.2)
(96443.7 -1337.96 -23104.3 82445 10065.4 67676.1)
(111431 -8885.35 -23232 145645 28210.2 88179.5)
(77363.4 -37.3909 -16521.3 41524.4 40.2015 49630.9)
(77381.9 -4.7741 -16478.4 41475.9 109.86 49630)
(77500.4 -16.9812 -16467.9 41697.6 207.322 49990.4)
(77636.7 -13.8621 -16519.7 42293.6 317.028 50234.5)
(78084.8 73.8974 -16501.4 43732.1 541.073 50638.1)
(79388.8 244.028 -16419 47343 1257.79 51347.3)
(82339 526.763 -16484.2 56564.8 3263.45 53541.5)
(89167.9 1622.75 -16513.9 81110.6 8842.04 59678.5)
(103159 62.3557 -19523.6 150797 25046.9 84059.5)
(76640.2 -33.0275 -17561.6 42338.1 16.5603 53611)
(76681.8 -11.0017 -17536 42468.5 50.6957 53615.2)
(76753.6 11.6945 -17459.5 42709 106.544 53616.6)
(76933.4 29.2366 -17460.6 43269.8 269.825 53672)
(77529.8 104.688 -17505.8 44765.8 585.379 54145.8)
(78936.6 302.151 -17608.3 48500.7 1306.58 55218.2)
(82033.8 894.491 -17702.6 57931.5 3221.1 57428.2)
(88881.6 2468.12 -17680.2 82454.4 9237.75 63101.2)
(106058 4439.82 -16390.1 152966 27089.6 82565.6)
(64521.2 -40.1805 -18886.8 37519.6 19.4358 48525.9)
(64539.9 -23.9359 -18878.2 37537.6 55.1927 48516.8)
(64676.8 -0.0706042 -18859.6 37817.2 121.147 48594.4)
(64960.3 14.7152 -18890.7 38487.7 268.575 48897.1)
(65583.7 63.594 -18943.2 40127.9 617.616 49473.7)
(67027.2 220.222 -19021.4 44201.6 1411.06 50678.3)
(70329.9 649.712 -19091.2 54550.4 3460.24 53348.1)
(77964.6 1869.73 -18932.9 82490 9049.53 59823.2)
(95229.6 3115.85 -17754.7 160768 24072 80476)
(69506.9 -24.3061 -11087.2 34960.6 16.1852 35122)
(69535.5 3.02061 -11083.1 35010.4 59.3504 35146.2)
(69675.4 32.839 -11078.9 35296.2 118.202 35252.5)
(69971.2 99.2844 -11084.4 36005.4 241.103 35485.3)
(70627.4 243.358 -11100.6 37718.3 540.492 35994.1)
(72104.6 633.195 -11103.5 41936.1 1232.43 37125.2)
(75304.5 1805.05 -11032 52571.3 3046.77 39639.4)
(82706.3 5332.54 -10661.2 80286.3 8796.36 46458)
(101173 14448.3 -7319.32 155672 24152.3 68685.4)
(63748.3 -41.0253 -13345.8 36886.7 8.92652 45382.7)
(63760.1 -22.2188 -13344.9 36922.7 49.6049 45396.8)
(63878.4 -0.295704 -13350 37207.7 116.906 45493.7)
(64132.7 48.2288 -13356.2 37921.7 263.018 45724.5)
(64760.8 151.536 -13400.6 39645.4 604.935 46263.9)
(66222.5 424.267 -13509.2 43829.8 1396.18 47478)
(69569.1 1295.02 -13709.2 54225.6 3470.5 50266.7)