/*--------------------------------*- C++ -*----------------------------------*\
| =========                 |                                                 |
| \\      /  F ield         | foam-extend: Open Source CFD                    |
|  \\    /   O peration     | Version:     3.1                                |
|   \\  /    A nd           | Web:         http://www.extend-project.de       |
|    \\/     M anipulation  |                                                 |
\*---------------------------------------------------------------------------*/
FoamFile
{
    version     2.0;
    format      ascii;
    class       volScalarField;
    location    "345600";
    object      sigmaHyd;
}
// * * * * * * * * * * * * * * * * * * * * * * * * * * * * * * * * * * * * * //

dimensions      [1 -1 -2 0 0 0 0];

internalField   nonuniform List<scalar> 
23248
(
62784.2
62819.9
62929.5
63183.5
63611.1
65097.2
68463.4
76106.2
98464.8
69855.6
69896.3
70000
70448.4
71175.2
72865.6
76721.5
87004.7
114772
57307.9
57333.4
57444.8
57703.2
58106.8
59606.2
62994.7
70175.5
94675.5
65794.4
65812.5
65915.7
66336.3
67012
68692.7
72660.8
83407.3
112786
55848.4
55888.5
56003
56269.4
56687.3
58163.6
61515.5
69334.7
92229.3
66309.9
66340.5
66435.2
66874.6
67538.3
69181.1
73049.5
83450.7
112051
65421.1
65457
65571.9
65824.4
66228.7
67674.5
70872.8
76919.4
98788.4
73813.6
73807.4
73912.9
74279.3
74936.1
76544.8
80335.5
90226.8
117143
81756.6
81811.5
81934.7
82203.1
82712.7
84136.2
87296.2
94937.5
112231
75930
75949.1
76080
76391.1
77085.1
78725.1
82463.1
92157.3
117166
48198.9
48277.1
48402.1
48672.3
49090.5
50622.1
53920.6
60444.4
90393.9
63090.2
63120.2
63248
63562
64259.8
65949.1
69996.3
80671.8
108674
52611.7
52673.3
52802.6
53102
53874.9
54848.4
58421.3
67720.7
93210.4
70510
70515.8
70650.1
70977.7
71730.7
73452.7
77518.8
88126
115780
76594.1
76684.6
76837.9
77135
77793.6
79133.1
82328.5
87970
108588
77232.3
77257.5
77392.2
77727.1
78485.1
80203.2
84255.1
94448.6
119866
66873.6
66936.5
66528
66903.2
67584.3
69222.6
72906.2
82865.1
104959
79639.7
79633.2
79751.9
80085.5
80843.4
82599.2
86838.4
97813.9
125789
80967.1
81011.4
80845.5
81178.3
81850.7
83194.3
82511.1
90799.9
113914
86547.8
86580.6
86714.5
87065.6
87845.3
89542.6
93584.1
104650
131764
71863.5
71956.4
72136.6
72462.4
73248.8
75773.6
102515
91884.7
116770
92029.4
92081.2
92236.7
92630.7
93567
95758.2
98897.6
112268
138867
94767.9
94833.5
94992.6
95331.1
96078.8
97641.8
91116.6
106457
133243
105500
105562
105735
106144
107071
109176
114392
125621
152941
116552
116621
116758
117066
117723
118844
122588
131375
160182
119411
119460
119650
120091
121056
123193
128119
139981
167634
123850
124111
124281
124646
125441
127171
131116
140529
173515
129785
129883
130103
130599
131688
134111
139639
152629
182840
119852
119760
119916
120300
121140
122986
127137
137769
182067
146416
146479
146690
147184
148271
150693
156275
169744
202687
175746
175803
175962
176328
177101
178741
182300
191165
222114
171749
171790
171997
172483
173533
175822
180967
193316
225672
205378
205420
205562
205884
206567
208014
211163
219393
250476
178462
178541
178759
179260
180341
182699
188010
200447
232960
161026
161100
161280
161686
162550
164393
168461
179519
230750
168750
168835
169074
169609
170775
173348
179301
194220
233081
199732
199792
199941
200269
200947
202339
205259
212376
242426
169390
169466
169709
170261
171441
173985
179634
192959
227429
73187.8
73218.7
73309.9
73521.1
74393.5
75716.4
78732
87518.5
109755
52623.1
52685.7
52755.1
53023.4
55577.1
55984.6
59668.8
76854.6
126958
61139.6
61365.7
64204.2
63844.6
62801.3
65124.1
69696.8
78933.2
107289
65210.1
65218.4
68315.5
68731
69223.8
67834.8
71357.8
84419.2
112216
67915.3
67951
68017.1
67981
68576.6
70424.6
73996.7
83663.9
110846
56589.5
56633
56843.8
57196.8
57969.5
59626.6
63612.5
74346.2
102113
45203.2
45302.9
45618.7
45993.2
46599.1
48295.1
52434.5
63746.5
101731
65464.6
65534.3
65648.4
66063.8
66738.9
68342.2
72100.3
82096.3
112463
40545.5
40601.9
40737.2
41105.7
41711.5
43461.5
47560.8
58178.5
93251.6
59296.3
59344.6
59480.4
59850.6
60225.8
62063.2
66150.8
76412.7
106511
60938.4
61019
61163.2
61517.2
62135.9
63879.2
67884.8
77264.9
108659
73353.1
73405.3
73544.1
73873.6
74605
76286.3
80185.9
89921.2
124664
82175.1
82147.6
82274.1
82586.6
83320.4
85150.6
88672.7
97540.5
128628
109349
109472
109604
109898
110534
111945
115320
122589
147046
117248
117296
117427
117726
118380
119811
122981
130443
155925
108794
108853
108997
109326
110045
111612
115106
123669
155061
91005.9
91068.3
91236.2
91620.1
92461.3
94228.2
98131.9
107490
137760
104388
104459
104630
105007
105797
107532
111265
119988
149789
91773
91838.2
92017.6
92418.2
93269.8
95074.2
98972.7
108211
139407
63663.5
63674.7
63794.1
64089.6
64773.4
66495
70570.7
81017.8
110863
49551.8
49565.1
49747.9
50079.9
50990.3
52791.1
57318
67597.4
99320.6
61213.4
61366.1
63115
63774.5
64710.2
64743.6
68862.1
82188.3
115085
56172.9
56162.6
56396.1
56721.6
57485
59359.7
64148.4
76652.3
112672
57529.8
57588.5
57693.1
57958.4
58813.8
60885.1
65797.8
78145.7
113863
50188.9
50198.1
50362.8
50781.7
51728.4
53969
59409.5
73425.9
112158
46529.8
46564.1
46741.4
47154
48113.3
50388.6
55838.4
69816.8
108510
48672.6
48693.2
48859.9
49259.6
50223.4
52510.1
58020.5
71721.5
108252
51447.6
51503.9
51672
52072.8
53030.7
55350.2
60800.1
74098.4
108079
50284.4
50319
50500.5
50956.8
52000.9
54386.6
60109.2
74177.3
110205
66259.4
66321.9
66517.4
66985
68036.6
70491.6
76167.7
89831.2
121869
79094.1
79161
79346.5
79792
80813.8
83173.4
88804.9
102599
135493
90222.3
90296.4
90484.3
90934.7
91954
94256.4
99599.5
112437
142863
101533
101612
101812
102269
103281
105529
110612
122348
149365
102892
102972
103185
103674
104738
107051
112209
123976
149889
94216.6
94320.8
94560.1
95105.4
96292.6
98892
104650
117642
146071
85998.6
86082.8
86343
86933.8
88207.5
90957.3
97010.8
110602
139740
93519.6
93623.4
93892.7
94497.1
95788.1
98542.1
104492
117523
144924
82701.6
82807.1
83089.7
83725.6
85078.8
87955.3
94169.9
107857
136879
73001.6
72043.9
70564.1
72277.2
72315.4
71521
69405.7
65834.1
63360.7
63520.5
62241.6
61326.9
58529.2
57053.8
52953.6
52682.7
53213.8
51639.4
52177.4
73400.3
70437.6
67356.4
67331.8
64123.3
63836.8
61061
58252.6
56800.7
56779.5
55547.2
57196.6
57114.6
55609.7
54337
52182.4
49872.2
45772.3
52667.5
72125
73295.1
73158
69080.1
68599.3
66606.5
62953.9
60410.1
59914.6
59190.9
56898.5
57956.9
58407
58578.3
56204.8
52816.8
50770
51614
54443.4
71367.6
66598
63131.6
62493.5
62718.4
60029.2
56987.2
55160.5
53726.6
59290.3
51887.1
50670.1
52663.3
54522.4
54826.7
52119.5
50344.1
48363.6
45963.3
70086.3
68771.2
68934.8
65371.1
64409.4
64121.5
60018.6
57912.2
57044
52021.3
57046.7
50695.7
60081.8
57633.6
56653.5
54182.9
51041.5
52760
52191.3
66437.6
64759.8
61253.4
58952.4
61031.7
59495.3
57442.5
57536.6
56158
56451.2
56169.5
48151.1
48091.5
53560.1
53136.9
52100.5
51015.2
50604.3
48756.8
64699.2
63300.2
60233.8
61839.8
61938.1
59916.3
59968.9
60458.7
61625
59752.6
49129.8
55404.2
56943.7
59788.3
64995.2
44116.1
50114.7
49468.1
50900.3
60659.6
60440.1
58602.1
56450.1
56768.7
57249.4
59730.2
64627.5
62564.1
56668.2
52769.2
52957.3
46677
59759.4
53675.2
50326.2
44474.6
49581
49372.7
62617
61189.6
58080.7
56960.8
60879.1
62891.1
62115.5
66981.2
67588.3
60781.2
58161.1
53255.6
49923.2
54480.1
58408.1
63480.5
42730
51065.4
50856.2
57464.4
55655.4
55280.3
56876.2
61793.4
62201.8
64929.8
66755
64396.1
61302.9
53790.7
58203.4
50729.4
47904.6
58881.7
53989
47680.4
50253.8
50537.9
60436.8
59212
59100.6
57992.2
59972.6
66876
68659.4
68187.8
66292.1
62297.2
58031.8
56908.4
48607.7
48708.3
51241.3
58420
61194.3
50942.1
52719
58291.7
58043
58088.8
59716.8
59354.9
64362
64010.6
66011.5
60175.5
58546.4
58131.1
51208.7
54931.9
49692.9
43588.2
56977.4
53713.5
45849.6
45552.5
61219.3
62686.8
63287.8
62716.5
62677.1
67860.5
69772.8
69171.4
61677.9
58755.7
58127.9
54222.7
53417.5
45363.8
48862.5
49426.6
58698.5
52283.5
55861.7
63392.7
62714.2
60339.6
58703.6
60622.5
71368.7
63219.4
63334.5
59378.7
54222.1
51813.1
54892.1
48321.3
53639.1
48366.6
42387
54064.6
51678.2
46514.5
66171.9
67144.8
64765.9
68633.5
64248
68233.9
64736.7
65678.1
63769.9
54389.4
52606.1
52976.5
48628.7
53079.2
44275.7
49763.3
49543.5
60571.9
58864
64988
63646.6
56481.7
64152.2
56764.9
57843.5
69983.9
54999.1
58084.4
51026.7
47884.5
48307.8
52204.1
42714.6
52491.5
47969
47128
48669.8
55864.8
69701.1
67601.5
64026.7
62079.1
66823.8
63018
62605.6
54920.7
56233.3
53658.8
45198.9
46819.7
47920.6
45926.1
52599.4
48507.3
53119.6
54896
59574.8
65094.3
60224.8
60787.4
63393
60944.2
55825.1
50468.7
63374.8
46601.9
50593.6
42383.4
41732.2
46318.3
49365.3
44500.2
40850.9
49457.2
51385.7
53646.4
70043.6
65528.9
61936.7
61920.4
59190.5
61217.9
55183
52712.4
46689.3
48721.1
49371
42075.2
47701.9
45160.1
49704.7
51721.4
55175.4
57775.1
59241.1
61879.8
62809.8
54730
56261.8
59775.5
55145.8
50923.9
42720.6
56385.2
41093.3
50901
40592.4
43539.8
46329.2
49337.6
48992.6
50155.3
54845.1
58157.7
65916.8
62808.4
62447.6
59245.1
58130.9
56022.7
50563.4
48269.4
48258.1
49429.1
44926.8
49453.3
46225.5
48062.2
50201
53979.2
54244.4
57426.8
61127.5
64344.2
59163.7
56724.7
57963.5
53002.4
49797
46442.1
45368.4
35441.1
53226.1
37092.7
44962.3
39605.1
42159.4
49212.5
50256
52320.8
54225.5
56950.9
67400.3
63377.6
56470.5
56560
55614.3
50524.7
48897.7
50473.2
41128.9
43531
48990.6
47190
50295.8
48265.8
47222.9
53795.6
54781.9
57326.6
61360.9
62918.8
60177.7
53586.7
53503.2
49057.4
45474
48347
44105.5
45441.2
31974.3
51762.7
36376.9
47485.9
42468.7
45201
52530.4
52700.5
52497.4
54800.9
69667.8
63312.4
58105.6
51917.4
51045.2
48118.9
43021.2
43363.2
41296.7
39359.2
46979.6
42131.4
46135.9
50890.7
50258.8
53278.2
56138.3
57681.8
61080.8
64773.7
60360
56727.2
50805.1
46133.3
48032.8
36708.2
44999.4
37590.4
40178.3
34500.8
46422.2
37958.7
50178.4
44672.6
50950.1
51920.2
51983.8
54371
71576.7
65137.8
58542.8
55355.1
46733.8
43277.5
42752.6
40856.1
41295.9
47832.1
42381.5
48053.9
50517.1
48225.6
54193.2
55091.7
58175.8
58757.7
60880.5
65860.5
60725.7
57861.1
51344.2
51124.3
36592.4
45395.2
34580.2
43546.9
41068.7
40806
39022.6
48800.3
44351.1
52409.9
50711.3
54532.3
52737.7
55557.7
72476.8
67725.3
61444.8
53487.7
44959.2
41222.6
39628.3
40543.3
41372.2
42698.3
51842
50060.1
53617.1
57677.4
57917.3
60328
59637
60489.2
61988.8
67101.1
62943.6
55876.6
53249.4
38239.5
47486.8
33474.3
42646.6
36876.6
40732.4
44371.1
43519.7
47103.5
51978.3
48668.4
52710.9
55535.7
56082.4
58227.3
73566
68776
61326.4
57250.8
59480.7
40403.5
40722.9
41335.5
43474.2
46914
50489.2
55492.3
58714
57562.5
58831.9
63273
62881.5
64513.1
65175.3
67802
61930.8
54960.3
59428.2
51769.2
36984.5
45011.4
36222.9
40562.4
43097.5
45308
46586.9
50852.2
54664.9
56119.6
57726.2
57237.4
57518.7
61028.3
73057
64526.9
62935.8
50062.6
55415.7
60261.5
43694.6
43943.3
47372.1
52136.5
56195.8
59756.3
63458.5
65481.5
64942.1
63287.4
66216.5
67267.4
66181.8
65074.8
60861.7
57497.9
44649.5
59205.4
50179
38620.7
44463.2
40813.4
44171.4
49216.1
53208.4
56211.4
59089.5
59473.7
62923.3
61601.8
58814.7
62168
70047.8
63861.4
59208.6
60783.8
56328.5
56506.1
51292.5
49904.7
52256.9
57760.3
61725.8
65804.5
68655.7
70623.2
70104.7
67291.5
65987.4
68922.7
68751.8
62518.3
57262.8
58413.1
55935.8
47849.3
60166.8
45998.3
47506.2
47404.5
51175.6
54835.8
59565.6
62604.5
64810.7
62835.6
65083.2
64916.5
61116.7
63360
67977.4
75844.7
63322.4
58932.3
61722.1
59108.9
60375.7
57014.3
59380.3
64179.9
68222.4
71943.8
74706.2
73926.8
68665.3
68035.2
67331.4
67085.5
69263.6
61964.9
61793.7
55485.3
56099
64490.4
47364.2
66629.5
49746.6
55291.5
58171.2
61425.4
66091.1
68898.9
69936.1
67384.2
65059.9
65383.9
65937.4
66214
162062
170106
159085
146053
145090
133644
130032
121864
115504
109115
104650
100503
98481.6
95765.4
90327.4
81878.1
77188.9
75461
76108.1
152552
167579
154864
149348
142723
130164
126075
121458
110881
106485
103220
96777.2
94946.4
92675.2
84122.2
77140.4
79803.8
76775.3
73462
162486
158712
152524
145461
144684
138653
135270
127354
124493
119220
112831
107051
103652
101391
92569.9
84389.6
79744.7
77281
73907.9
161743
161600
153911
148026
140794
137179
129413
125568
122557
113219
105254
100545
100066
95899.7
87750.6
82655.9
80449
76294.3
73320.7
154315
159085
152143
152782
150507
140602
136697
129546
122118
119381
112154
105819
103760
102608
94800.7
85994.6
83981
79194.1
75514.5
150744
158969
153157
148977
147146
141101
130326
125263
121748
116725
110634
103963
104621
99433.6
88315.9
85820
82137.4
72506.9
69395.3
165143
158626
156792
151622
146785
144722
138242
131648
126775
119079
111898
110821
103027
100209
94537.8
90262.6
86064
79820.4
74222.7
157356
158686
155617
151879
146499
141796
134303
128641
122566
120677
113708
110608
104976
96077.7
90686.1
90235
84416.1
75090.8
65720
160367
164940
160576
153256
146102
144392
136502
129076
125751
119671
118986
112680
107877
102509
95740.6
94392.1
86998.9
78697.2
67210.7
155685
165085
159385
152634
145636
140248
135423
131014
125331
119183
116118
113823
105052
96813.8
94452.3
93536.7
84278.3
73887.2
63318.3
157888
164347
164673
151009
150169
137382
134365
134602
129503
117881
117454
116215
108594
102888
98242.9
94105
87445.7
75261.4
63988.9
149641
164302
158141
151901
144339
140371
134159
131661
125493
118547
119221
114960
105420
97351
99794.5
94130.2
78278.2
69487.6
61802.8
167317
162936
153169
157047
152794
140135
139390
136403
130857
121747
119523
112814
106249
104024
103039
94398.3
83585
70077.5
63622.8
158537
165502
162301
158193
149659
141526
134946
130521
126008
122614
120569
111822
103428
100985
103955
87871.8
74895.1
66716
64436.4
161176
176539
168839
160448
160489
145324
136261
132306
130153
119518
116632
111568
107278
105557
103729
91954
76533.2
69906.5
66045.2
157356
166796
165653
161111
153701
147038
138165
129993
123927
120701
115537
112568
102674
104171
99728.7
83151.8
71339.3
69449
68447.3
179833
181915
172212
167828
164401
154988
134109
134888
128231
121532
117415
110912
106867
103256
98929.4
87117.4
76247.8
74333.6
73576.2
167714
173135
168902
162302
157260
149348
140004
134601
125788
121497
116095
110497
103825
102286
93464
80225.1
72109.7
74788.4
71228.8
183385
192396
174410
167914
162919
152065
142697
143448
133091
122072
116189
113825
106373
99159.1
95196.3
84617.4
77898.2
79035.6
76637
169788
180192
177475
168671
159604
152434
145389
139003
130857
125304
115241
108105
106461
97096.5
88857
78120.5
80026.2
79215.8
71678.3
192538
198592
187939
184796
164507
168402
154149
139132
135497
129231
114157
112073
105451
97483.8
91481.7
84102.7
82885.3
82158.5
74201.7
179438
184942
183594
173197
161992
161511
155064
138452
134144
128612
114251
106304
103176
96585.6
87141.9
82416.1
85165.4
79626.6
66279.7
206490
197024
192092
178102
180047
170210
152659
144789
139688
121342
115977
109510
107545
99587.3
91680.3
86906.9
87189.9
84042.9
74822.7
197964
197282
189052
184137
174087
169932
154888
144828
138361
125278
116796
106356
102732
93687.6
86785.2
84600
85031.3
77897.8
69332.7
226060
221998
213535
202664
180449
184591
169316
151790
149155
122297
120734
111946
105558
95858.2
93504.5
87419.3
85875.2
83473.7
76441.3
208850
211940
202368
192611
184029
173949
165355
155935
139956
126379
118030
104947
99210.4
88665.2
87275.8
84661.6
83561.4
78212.9
68368.7
266451
225659
217257
226422
208589
203675
165197
161847
138375
128017
122788
112207
100812
94104.5
93643.7
86852.7
83632.1
83572.6
77966
228137
226979
217236
209458
197170
182418
174424
155398
139796
129878
118550
103365
98154.2
86851.9
88245.2
83803.4
82674.3
79758.5
73564.3
261511
277527
261306
237933
207947
206168
177321
165547
148170
134131
123581
110563
101313
91919.4
91536.9
87700.4
85281.9
82406.8
78256.9
249495
245250
237431
223131
209635
195929
178831
162043
146463
137117
121505
103980
102619
90535.9
87101.8
86763.9
81852.4
76605.1
71675.3
283954
304493
274285
272053
253611
199623
187206
170408
156775
132212
120068
112681
105893
98625.5
90671.8
89901.1
86255
82600.8
77923.3
266462
260293
251168
237755
221002
203105
187319
166399
153051
134754
118804
107522
103146
96125
87158.8
87826.5
82219.7
74485.8
70212.4
319108
325242
273844
268271
240456
225726
205654
175269
159769
128220
125213
117183
107578
102504
92781.3
88360.5
87230.2
81045.6
76818.8
283432
272068
260986
246176
227009
210954
195700
177509
152292
131140
121801
109793
102237
99092
89691
84210.5
84443
74694.3
69199.5
327888
313555
291600
255111
216955
220943
208262
181555
154600
140193
128460
116652
107462
98257
95886.5
86102.4
83015.9
79568
74812.8
289442
269175
252994
233347
222975
207243
196605
180858
156235
137782
124462
109881
102049
97165.9
91913.3
82216.6
81177.3
75176.8
66138
328626
283381
264293
249966
226131
210009
195768
184056
160113
149156
130005
119742
108510
99524.4
95179.3
88451
79922
76563.8
72582.9
289252
258996
239879
223346
216820
204972
195621
180711
161256
141227
124842
114902
103140
97548.1
92343.3
83076.2
77367.2
75471.2
66268.2
167894
167131
162751
141362
130586
118696
110621
104557
101656
96648.5
89545
91474.9
91449
91954.3
90929.6
85917.8
76535.7
74439.2
77416.8
138048
198229
141139
128234
111597
101535
91369.6
88488.4
83916.4
82299.9
83359.4
83197
84017.1
86800.1
86799
79487.5
73689.5
73550
72513.3
178037
191388
125041
113546
101045
91109.3
76652.6
74764.1
71274.6
72819.3
74180.1
76844.6
79206.6
82705.2
81926.6
75082.8
70057.2
72170.1
73253.3
209698
175706
132284
97299.5
86532.8
70494.8
59236.5
67927.7
67454.6
68521.6
71274.9
73708.7
77309.7
80878.3
79300.2
70490.3
68187.7
73595.9
73809.3
215848
166813
123521
91432.5
81753.2
64274.8
56925.2
54873.6
60272.4
64632.7
67749.8
68349.8
74169.3
76631.4
73099.1
70059.6
70812.5
73454.8
73984.3
216686
165827
105483
85965.9
64452.9
53778.7
54500.6
48791
57072.2
60489.2
64706
68529.2
73252.9
74712
74157.7
72473.8
72861.3
73940.5
73728.5
220499
157825
99681.6
66232.6
63427.3
55255.5
45815.6
49312.8
49503.3
59643.1
61902.1
66127.6
69693.2
76687.1
77386.6
75992.2
75399.1
76865
74218.8
200104
148499
90671.3
74566.7
59941.2
50320.3
46274.6
48509.1
49542.5
63612.3
65327.8
68125
72288
81392.4
86304.1
82512.7
78629.5
78092.3
71790.4
227161
157290
95071.4
73759.5
64877.7
56955.2
42128.1
43083.2
57801.2
57428.8
72078.4
74376.9
82059.1
86986.2
91138.3
89554.8
81772.3
77685.8
68231.2
221003
147856
99030.5
82273.9
65382.4
58326.3
55412.7
48352.1
75411.4
71597.4
80317.3
84798.9
89178.4
90739
90774.3
86995.2
81933.1
71759.1
68241.6
215414
152617
111811
81861.7
74200.1
71806.5
69979.5
71509.9
75283.2
80393.4
89028.4
90364.1
89901.3
86546.2
88562.7
81427
72428.5
68627.5
63182.3
221704
172641
113966
89427.7
96201.5
93879.4
83259.7
85245.6
82616.9
84127.4
88429.3
86052
88422
83131.1
79792.3
75112.2
70477.1
62828.7
64270
220729
171921
123378
123865
122439
114983
102889
94379.7
84906.4
85005.4
80504.9
80550.2
80130.4
73006.3
68472.1
67478.2
65343.4
59887.9
57829
228637
180689
152953
127269
128037
115495
116586
82608.6
79981.4
77138.5
72722.4
71026.8
64146.7
62407.9
59515.3
59395.3
58570.6
56596.8
54901.4
201718
175147
159619
149382
137163
115817
99780.8
76129.1
72012.8
63513.4
60593.4
60955.6
55271.9
54900
54008.4
53400.6
54678.2
54629.9
52682.7
236050
192791
173759
132312
120929
105436
82775
67680.5
61888
56229.5
55095.5
53014.5
53132.1
49806.2
49460.7
48746.3
51283.2
53268.6
53971.3
220647
195494
162353
129764
104365
91498.1
84701
68692.9
55658.9
52299.6
50857.4
48078
49080.4
47864.4
45040.7
46638.2
47388.6
52760
53694.8
231826
187690
149459
125475
101299
93081.8
80808.9
68500.8
56649.9
50227.1
48176.4
46193.2
46070.4
47435.3
44769.5
45165.5
45695.1
48558.4
52656.8
215292
198392
142035
124360
105243
89303.4
79783.8
65672.8
56498.2
47633.5
45175.7
44670.5
43551.3
43881.6
42564
40722
42871.2
42986.2
47492
156228
161155
152147
143162
137179
126999
112102
104709
98939.9
94872.1
89600.2
86792.4
89234.9
92616.9
85568.9
75016.3
74897.2
74619.2
73232.8
159020
172964
147162
133827
122656
106840
86881.4
86403.9
83925.5
82111.5
81347.8
80364.2
83843.5
87838.3
81200.8
74046.9
72510.2
74194.1
72286.3
166266
168197
144994
123849
107611
88773.3
79596.2
72241.1
71283.4
73985.5
76217.3
74254.4
78032
83272.4
77374.2
69570.7
72076.5
74149.7
71219.7
171200
173300
140810
109268
92767.5
69413.7
60879.7
62880.8
66063.2
68858.3
70385.4
69923.4
76955.6
82533.7
74038.7
69491.9
73258.8
73043.6
70094.5
167044
168383
132906
102483
78514.9
65795.6
53850.5
50124.4
60419
66490.2
64026.4
67571.1
74093.1
76467.5
72235.7
71013.6
71099.7
72873.4
70786.7
183401
157592
124373
91652.1
67090.7
48090
49652.6
51136
54869.1
61839.5
64201.7
65184.3
70654.2
74463.4
74972.5
71601.7
71416.1
75163.4
70832
165275
152017
110070
73604.7
59932.8
52681.6
46332.6
47648.5
49128
56255
60120.2
64943.1
71512.4
75641
75050.9
74101.9
75727
75241
68559.7
165936
151639
102093
74843.3
57512.5
47303.6
41597
45435.9
55102.5
57443.6
63130.4
67398.5
74642.2
83738.1
83873.6
79285.7
78468.9
75330
65650.1
165306
147466
100145
79032.5
58429.2
52811.8
38903.2
40826.4
58688
56973.6
68647.8
75291.3
83719.3
88401.8
91221.4
86697.8
76493.9
75732.8
64271
167213
149782
105762
80464.4
61734.5
51694.7
55300.3
46511.1
71685.7
68032.7
78330.4
84898.7
88001
89782.4
89627.4
85938.7
74122.6
67536.6
62351.1
176663
152480
111995
90001.7
68152
61230.6
68554.5
70289.3
75451.9
79548.8
85215.7
85234.9
88945
86953.5
85250.3
78553.1
69998.5
64282.3
58643.5
188534
159867
124456
100373
93045.9
83618.9
72749.5
71424.2
75486.1
80866.1
86815.1
85544.9
86462
75960.4
76510.3
71097.5
65002.2
63569.4
57662.6
187060
172655
140801
124023
113875
101145
90898
83136.8
81682.9
78260
77145.8
76312.7
73304.4
67545.4
65991.7
63203
59664.4
58536.7
56152.8
189436
175824
154160
138073
123084
108768
95494.8
81992
77485.1
70156.9
66958.6
64006.9
59149.3
56628.5
56200.5
56714
54158.8
53029
55650.5
185855
179429
162731
144305
123988
107125
91309.7
74601.2
66441.5
59112.4
58495.5
54880.6
50955.4
51289.8
49516.3
51567.4
51587.3
49013.5
51798.3
187900
181144
159123
139271
119687
100037
80758
65181.2
57306.5
49549.8
50117.2
50103
47078.7
46018.3
45453.1
45058
48924.1
48314.8
50007.5
180269
178838
155441
131713
112959
97079
80262
62521.3
53484.4
47757.9
43180.3
44522.3
43806.1
41548.3
41949.8
42357.7
44093.6
48666.6
47687.5
180631
179010
150356
128775
108740
93790.2
83840.5
63125.1
50893.1
46897.3
43166.3
41215.2
41523.1
39944.7
39301.3
40662.9
40332.2
45062.8
46200.5
176402
176641
149524
129354
110804
90827.2
81640.2
65581.5
49854.9
43849.1
41024.4
38068.7
37501.4
37986.5
34674
38082.1
38409.4
39755.3
43919.5
207684
181249
138814
113128
90381.4
85989.4
74212.9
60722.1
52464.7
44650.2
42487.9
43313.9
42196.6
42107
40725.3
43392.4
44621.9
44479.9
50944
174009
170584
145052
121533
105767
88528.5
79639.4
63666.3
46886.4
41737.3
38971.4
35647.5
35744.9
36216.5
32781.6
36185.7
36398.7
39871.7
44389
207709
176501
130727
113694
91945
86244.5
75761.9
60681
50197.9
45156.5
44809.6
43441.4
43731.7
43889.1
41373.8
41766.5
41777
44551.7
48539
177532
166903
140134
120404
103538
87225.8
76815.4
57401.2
45396.3
41674.8
40241.2
37385
37182.6
35601.5
37191.8
39573
37692.3
43211.3
44730.9
200854
181321
140657
123604
90418.9
89553.3
78259.4
63614.7
55686.1
50522.4
50400.3
48551.3
48749.8
46089.8
44121.6
45654.7
45236.5
50052.9
51092.5
175774
167968
148115
124018
105593
92158.9
77957.7
58006.2
49742.7
47817.3
43436.3
43070.3
40807.2
39193.5
40071.7
40271
40778.9
45997.9
44961.6
222262
188191
146456
126711
101734
84842.9
68206.6
62018.6
59387.4
56267.2
54029.2
54424.7
55557.8
51960.8
51416.3
49505.7
51312.1
52965
53690.4
185015
177333
154726
134464
113316
93351.9
77781.2
59988.8
55916.3
50168.1
51000.2
49343
47615.6
46242.6
45047.2
43327.7
48038
47692.9
48728
210946
187237
158608
134204
117453
92448.6
70248.1
68097.3
61892.3
58415.2
57436.7
56773.4
56917.3
56438.8
56073.9
56548.1
58592.8
57605.4
54997.4
192247
184657
161136
140877
119936
97395.4
81816.8
65878.7
56610.7
52874.2
53599.9
54795.9
51834.5
53011.5
49656.7
51994
53101.8
50499.5
51465.9
216613
203248
169964
136004
115253
98803.1
88550.5
73073.4
66886.4
65092
64566.5
63172.8
58179.8
60343.6
58547.7
63080.9
64405.8
61129.8
55911.9
193760
187355
170739
148672
125391
101086
83781.1
65579.7
58745.8
58876.6
57650.4
58879.5
55056.2
56041
54981.3
60078.3
57662.1
55880.3
53560.2
191802
174880
162922
152990
131550
103714
85183.8
81052.7
75766.1
70894.9
69683.7
70705.4
67357.1
64663.6
66231.8
68722.5
66233.2
61419.3
60640.1
185969
185582
162790
146660
127293
107405
91343.7
74397.5
69030.8
67780.9
67740.9
65516.2
62641.5
61388.1
63797.3
61861.3
61883.6
60089.7
53985.7
203762
170496
157664
150634
125823
106257
97307.2
89433
82526.2
79960.7
78717.1
75339.6
76167.7
71082.3
72061.8
72035.2
67001.8
64693.1
62532.8
191194
175228
151888
142418
121745
104831
95545.4
82757.7
77636
75511
72991
72160.5
70978.5
68652
69789.3
66836.5
65978.3
60975
54447
193369
166657
138571
126543
126158
99763.9
101393
90630.5
88232.3
84647.1
86730.8
85692.1
79655.4
76714.9
75587.3
72836.8
69798.3
65993.2
63811
163298
152041
134254
125999
115860
103725
96022.4
87832.8
83429.4
83043.7
78465.2
81192
80367.9
73657.5
70850
69881.7
68299.7
62290.4
56383
193541
145989
106769
96670.2
102297
98498.1
91287.1
90862.6
90652.4
90258.8
90419.9
89550.2
84148
81085.4
77554.2
77292.5
75690.1
70718.5
64689.3
149905
141247
112810
101641
94530.8
92868.9
89480.7
91573.2
84010.8
84696.4
86236.2
89347.4
82963.6
78367.8
75722.9
75862.8
71326
62073.2
59888.8
187791
147461
103739
85859.7
77261.9
75873.9
78504.6
80974.9
86939.5
87384.7
86043.9
87408.3
86489
80781.6
79761.2
79393.8
79073.2
71435.2
66147.7
145019
131272
96330.5
85916.1
78845.8
78008.9
78488.6
83581.3
82888.7
84473.4
86438
87645.9
82379.9
79552.5
80307
79294.5
73199.1
66677.8
60028
189452
134706
95377
81080.9
73609.2
73911.5
74381.5
74303.9
78894.5
78508.7
81217.2
83987.3
85177.4
81403.5
74744.1
78176.2
79353.1
71981.6
64016.6
152199
128238
94232.3
76953.4
70900.9
71184.6
71490.5
78487
79250.2
78697.9
79986.9
83989.4
82727
78316.1
78259.5
77907.7
71210.4
67327.2
59679.3
165990
157909
93902.3
84636.3
70337.7
76431.8
70527
73713.6
71152.4
73881.9
76185
79721.1
81278.4
76403.3
73798.9
73821.3
76317.7
71794.4
62622.3
141095
134307
98880.7
77850.1
75709.7
72195.2
70523.2
69950.1
67720.7
71364.6
73391.9
77736.9
80417.6
72901.2
71427.8
76801.6
72747.4
65896
59233.6
192283
153232
109024
80632.4
75488.9
72717.3
76125.2
68623
75120.7
74587.4
74923.7
76196.3
77575.2
75562.1
72704.9
73982.3
73305.5
70374.5
64878.5
152987
140313
111306
85455.7
74281.2
74748.3
70094.9
69336.4
74296.1
73633.3
71153.7
73155.2
77066.8
72526.3
70504.7
73957.7
72963.3
67205.7
60251.8
203849
161137
112844
90497.8
80608.3
77047.7
79344.5
71421.1
75218.2
78129.5
80073.5
78787.5
79357.3
78115.1
70228.8
72048.1
73406.6
70339.9
64403.1
157715
146159
117838
93280.9
79031.6
74791.4
78800.1
68095.3
74421.8
77313.3
75919.5
76375.1
77540.2
73135.1
69614.4
72688.7
71859.2
68084.9
62685
155309
184769
124799
96685.5
83541.6
79142.9
75680.4
76820.1
77050.8
79593.6
80367.5
78198.4
83827.7
81379.3
73739.2
71127.5
71079.2
69756.2
66534.8
169239
154296
124001
103820
82417.1
80291
76485.8
74072.9
75929.1
77804.9
76485.1
78782.5
81764.5
75362.9
69289.8
71193.3
71226.3
68651.8
65148.4
188467
178434
124294
104058
95174.1
88361.1
83130.7
82182.2
82207.9
84491.9
83138
81117.6
87745.9
85848.8
76757.4
72276.4
72311.7
73686.7
67874.6
168914
159900
127772
105560
92526.8
84880.2
87355
80562.3
79890.2
82222.8
82573.2
84496.8
85626.1
78596.3
71337.2
71595.4
70580.8
68747
65977.9
202658
177842
135516
116079
105578
97612.4
92085.2
88295.7
88241.2
93022
90097.5
85537.9
87980.6
89645.8
83048.7
76503.1
74877
76511.7
71880.9
189039
162373
139735
113970
98872.3
93962.2
91759.1
86156.1
84697.3
88732.6
86757.4
85205.2
90132
85641.9
75979.5
74883.5
72207.4
69224.1
66833.8
222330
203943
142671
132860
127035
112289
105250
101510
96107.5
96441.3
95849.5
94320.2
96062.8
95919
87067.2
78959.6
74615.8
75855.2
72391.7
193964
180579
153701
132364
114783
107897
106503
98006.3
93686.7
97173.7
94986.2
88822.2
93853.3
92368.1
79370.8
75246.3
73910.8
70401.4
68835.4
80991.6
81060.9
81254.8
81688.5
82607.4
84544.1
88702.3
98473.8
130048
77367.7
77473.9
77763.8
78415.2
79800.8
82742.8
89085.8
102980
132136
67628.3
67713
67923.1
68392.8
69392.2
71513.2
76129.2
87245.2
193786
78079.5
78191
78481.6
79132.7
80522.4
83488.3
89938.7
104250
165260
72908.6
72962.8
73164
73619.6
74592.3
76667
81171.3
91940.1
176975
78511.8
78604.4
78878
79500
80837.4
83714.9
90032.1
104264
165050
71957.3
72025
72223
72672.2
73635.5
75697.3
80195.9
90801.4
165833
90563.1
90664.4
90916.1
91484.3
92710
95362.4
101228
114560
174418
97912.1
97977.5
98145.1
98523.2
99342.9
101112
105002
114192
186577
101604
101658
101886
102408
103540
106004
111470
123929
179422
89348.9
89398.8
89556.6
89919.8
90719.1
92479.6
96440.5
106008
178711
102253
102335
102550
103035
104100
106452
111774
124123
178737
85319.9
85378.3
85541.2
85892.6
86675.8
88445.2
92498.7
102287
182137
99193.9
99350.1
99580.6
100050
101082
103399
108803
121514
176241
91039.5
91086
91222.1
91550
92281.1
93905.4
97562.1
106845
183175
93431.1
93426.9
93583.5
94020.5
95007.8
97216.6
102191
114069
170750
79701.4
79753.7
79879.7
80168.6
80817.7
82248.5
85628.8
94037.7
164877
73544.1
73589.2
73766.3
74195.4
75165.2
77362.8
82370.3
94478.4
150488
63289.2
63451.1
63589.8
63908.2
64664.9
66261.9
69723
78768
150347
56083.2
56120.1
56298.1
56719.2
57668
59872.8
65027.1
77324.5
135314
51947.9
51950.2
52099.1
52464.8
53369.1
54956.8
58628.9
68511.5
148476
45006
45070.9
45256.8
45693.9
46671.5
48916.7
54185.7
67243.1
130008
53192.4
53322.5
53465.8
53849.6
54607.1
56601.4
60320.1
69970.8
159951
43420.9
43460.5
43639.2
44059.6
45027.6
47264.5
52511.5
65875.1
133961
33624.8
33708.2
33858.4
34573.9
35426.5
37197.3
41172.3
51364.3
138181
36495.7
36528.7
36675.9
37113.2
38115.8
40306.1
45276.1
57305
124043
62487.4
62556
62708.2
62870.2
63458.7
65157.2
68858.3
76851.5
139513
45452.7
45488
45770.1
46322.5
47770.9
50126.2
54672.3
66085.8
131762
32462.1
32508.9
32796.1
32826.2
32762.7
34336.3
38947.6
50550.2
129800
43026.4
43050.8
43332.7
43850
45556.8
47572.2
52498.9
65975
137884
35784.4
35819.2
36702.9
36855.4
37034.8
38725.3
43196.2
52188.2
148098