/*--------------------------------*- C++ -*----------------------------------*\
| =========                 |                                                 |
| \\      /  F ield         | foam-extend: Open Source CFD                    |
|  \\    /   O peration     | Version:     3.1                                |
|   \\  /    A nd           | Web:         http://www.extend-project.de       |
|    \\/     M anipulation  |                                                 |
\*---------------------------------------------------------------------------*/
FoamFile
{
    version     2.0;
    format      ascii;
    class       volVectorField;
    location    "345600";
    object      U;
}
// * * * * * * * * * * * * * * * * * * * * * * * * * * * * * * * * * * * * * //

dimensions      [0 1 0 0 0 0 0];

internalField   nonuniform List<vector> 
23248
(
(-2.05675e-05 3.17224e-09 -0.00101224)
(-2.05674e-05 7.4117e-08 -0.00101224)
(-2.05654e-05 1.9277e-07 -0.00101224)
(-2.05611e-05 4.41786e-07 -0.00101225)
(-2.07006e-05 9.70584e-07 -0.00101213)
(-2.06847e-05 2.15616e-06 -0.00101222)
(-2.06675e-05 4.85321e-06 -0.00101248)
(-2.13962e-05 1.081e-05 -0.00101213)
(-2.24716e-05 2.70566e-05 -0.0010092)
(-2.00871e-05 -2.16643e-09 -0.00102099)
(-2.00898e-05 8.54876e-08 -0.00102099)
(-2.0093e-05 2.33482e-07 -0.00102097)
(-2.02563e-05 5.45468e-07 -0.00102075)
(-2.02754e-05 1.2533e-06 -0.00102073)
(-2.02913e-05 2.86456e-06 -0.00102066)
(-2.02825e-05 6.77955e-06 -0.0010205)
(-2.12593e-05 1.64975e-05 -0.001019)
(-2.28298e-05 4.02713e-05 -0.00101396)
(3.53844e-05 -1.51657e-09 -0.00105243)
(3.53863e-05 7.5367e-08 -0.00105243)
(3.53901e-05 1.98485e-07 -0.00105243)
(3.54011e-05 4.50494e-07 -0.00105244)
(3.52517e-05 9.89702e-07 -0.00105234)
(3.52685e-05 2.20061e-06 -0.00105243)
(3.52823e-05 4.95855e-06 -0.00105267)
(3.4361e-05 1.10327e-05 -0.00105227)
(3.30429e-05 2.78141e-05 -0.0010488)
(3.75076e-05 -1.43535e-08 -0.00105954)
(3.7509e-05 8.37228e-08 -0.00105953)
(3.75127e-05 2.35162e-07 -0.00105952)
(3.7324e-05 5.49579e-07 -0.00105934)
(3.73299e-05 1.24782e-06 -0.00105931)
(3.73344e-05 2.8881e-06 -0.00105924)
(3.7311e-05 6.86893e-06 -0.00105908)
(3.61501e-05 1.68561e-05 -0.00105762)
(3.42777e-05 4.15529e-05 -0.00105211)
(9.74156e-05 9.23557e-09 -0.00108044)
(9.74171e-05 8.03628e-08 -0.00108044)
(9.7421e-05 2.04282e-07 -0.00108044)
(9.74367e-05 4.59113e-07 -0.00108045)
(9.72615e-05 1.00702e-06 -0.00108035)
(9.72817e-05 2.2216e-06 -0.00108043)
(9.73192e-05 4.9592e-06 -0.00108066)
(9.66547e-05 1.09801e-05 -0.0010805)
(9.51443e-05 2.70922e-05 -0.00107719)
(9.82079e-05 7.20889e-09 -0.00108759)
(9.8208e-05 8.96645e-08 -0.00108759)
(9.82102e-05 2.38807e-07 -0.00108758)
(9.79995e-05 5.56235e-07 -0.00108741)
(9.8003e-05 1.25123e-06 -0.00108737)
(9.80055e-05 2.88355e-06 -0.0010873)
(9.79673e-05 6.81184e-06 -0.00108715)
(9.69623e-05 1.65125e-05 -0.00108586)
(9.54435e-05 3.98846e-05 -0.00107983)
(0.000155951 9.2238e-09 -0.0010989)
(0.000155952 8.35129e-08 -0.0010989)
(0.000155954 2.10407e-07 -0.0010989)
(0.000155961 4.71678e-07 -0.0010989)
(0.000155782 1.02546e-06 -0.00109881)
(0.000155811 2.24783e-06 -0.00109889)
(0.000155868 4.98034e-06 -0.00109913)
(0.000154815 1.07506e-05 -0.00109872)
(0.000154748 2.68645e-05 -0.00109566)
(0.000163459 -9.87545e-09 -0.00110573)
(0.000163459 9.21028e-08 -0.00110573)
(0.000163454 2.43791e-07 -0.00110571)
(0.000163211 5.61483e-07 -0.00110554)
(0.000163208 1.2587e-06 -0.00110551)
(0.000163193 2.87313e-06 -0.00110543)
(0.000163134 6.72399e-06 -0.0011053)
(0.000162157 1.62977e-05 -0.00110417)
(0.000161058 3.98864e-05 -0.00109888)
(0.000240096 1.75797e-08 -0.00110625)
(0.000240098 9.1161e-08 -0.00110625)
(0.000240104 2.21869e-07 -0.00110625)
(0.000240124 4.8728e-07 -0.00110627)
(0.000239966 1.05043e-06 -0.0011062)
(0.000240021 2.27083e-06 -0.00110626)
(0.000240134 4.97639e-06 -0.00110646)
(0.000239491 1.07885e-05 -0.00110657)
(0.000235392 2.55563e-05 -0.00110523)
(0.000240269 4.85669e-09 -0.00111364)
(0.000240271 1.00943e-07 -0.00111364)
(0.000240275 2.59825e-07 -0.00111363)
(0.000240287 5.8825e-07 -0.00111362)
(0.000240306 1.30752e-06 -0.00111357)
(0.000240364 2.95431e-06 -0.00111348)
(0.000240444 6.82742e-06 -0.00111329)
(0.000239449 1.62105e-05 -0.00111228)
(0.000237151 3.88293e-05 -0.00110791)
(0.000305525 2.19166e-08 -0.00111434)
(0.000305524 9.44616e-08 -0.00111434)
(0.000305526 2.29375e-07 -0.00111434)
(0.000305536 5.02182e-07 -0.00111435)
(0.000305342 1.08021e-06 -0.00111428)
(0.000305388 2.3453e-06 -0.00111435)
(0.000305512 5.15811e-06 -0.00111455)
(0.000304581 1.0953e-05 -0.00111417)
(0.000309079 2.64837e-05 -0.00110975)
(0.000308019 -4.91608e-09 -0.00111923)
(0.000308018 1.03219e-07 -0.00111923)
(0.000308019 2.6907e-07 -0.00111922)
(0.000308028 6.07379e-07 -0.0011192)
(0.000308045 1.3598e-06 -0.00111916)
(0.000308071 3.09083e-06 -0.00111908)
(0.000308139 7.18778e-06 -0.00111888)
(0.000307276 1.72343e-05 -0.0011178)
(0.000305556 4.11984e-05 -0.00111295)
(0.000367017 2.43975e-08 -0.001117)
(0.000367018 1.02958e-07 -0.001117)
(0.000367017 2.45088e-07 -0.001117)
(0.000367025 5.3058e-07 -0.001117)
(0.000367 1.13745e-06 -0.00111702)
(0.000366789 2.42973e-06 -0.00111707)
(0.000366947 5.36044e-06 -0.00111726)
(0.000366821 1.18238e-05 -0.00111734)
(0.000367001 2.87887e-05 -0.00111436)
(0.000376173 -2.49967e-09 -0.00111687)
(0.000376172 1.12081e-07 -0.00111686)
(0.000376171 2.87955e-07 -0.00111685)
(0.000376166 6.47867e-07 -0.00111683)
(0.000376155 1.43961e-06 -0.00111678)
(0.000376134 3.24389e-06 -0.0011167)
(0.000376125 7.51376e-06 -0.0011165)
(0.000375462 1.79011e-05 -0.00111545)
(0.000374719 4.30235e-05 -0.00111054)
(0.000443767 3.66501e-08 -0.00110068)
(0.000443765 1.08811e-07 -0.00110068)
(0.000443763 2.53654e-07 -0.00110069)
(0.000443771 5.44638e-07 -0.0011007)
(0.00044385 1.15125e-06 -0.00110072)
(0.000443905 2.45019e-06 -0.00110071)
(0.000444111 5.28517e-06 -0.0011009)
(0.000443679 1.10311e-05 -0.00110077)
(0.000444528 2.70336e-05 -0.00109817)
(0.000456894 7.35806e-09 -0.00110121)
(0.000456892 1.20603e-07 -0.00110121)
(0.000456879 3.02531e-07 -0.0011012)
(0.000456874 6.76571e-07 -0.00110118)
(0.000456887 1.49625e-06 -0.00110114)
(0.000456915 3.36413e-06 -0.00110105)
(0.000456945 7.71474e-06 -0.00110086)
(0.000456068 1.82415e-05 -0.00110009)
(0.000453394 4.33543e-05 -0.00109631)
(0.000524896 3.02681e-08 -0.00108999)
(0.000524907 1.04545e-07 -0.00109)
(0.000524623 2.53458e-07 -0.00108998)
(0.000524641 5.52382e-07 -0.00108998)
(0.000524656 1.16654e-06 -0.00109001)
(0.000524635 2.51336e-06 -0.00109011)
(0.00052482 5.4977e-06 -0.00109028)
(0.000524893 1.20578e-05 -0.00109048)
(0.000523779 2.93118e-05 -0.00108854)
(0.00053561 1.70567e-09 -0.00108894)
(0.000535613 1.21516e-07 -0.00108894)
(0.000535613 3.10549e-07 -0.00108895)
(0.000535609 7.04127e-07 -0.00108894)
(0.000535587 1.56279e-06 -0.0010889)
(0.000535539 3.54041e-06 -0.00108883)
(0.000535474 8.22638e-06 -0.00108865)
(0.000534747 1.94581e-05 -0.00108783)
(0.000532552 4.66238e-05 -0.00108409)
(0.000624356 3.07728e-08 -0.00106885)
(0.000624352 1.10358e-07 -0.00106885)
(0.000623993 2.63912e-07 -0.00106886)
(0.000624 5.78298e-07 -0.00106888)
(0.000624004 1.20489e-06 -0.00106891)
(0.000623819 2.47693e-06 -0.00106914)
(0.000623267 5.58825e-06 -0.00107005)
(0.000623789 1.20624e-05 -0.00106905)
(0.000618613 2.94706e-05 -0.00106885)
(0.000628751 1.78614e-08 -0.00107052)
(0.000628755 1.32272e-07 -0.00107052)
(0.00062876 3.32623e-07 -0.00107052)
(0.000628762 7.52859e-07 -0.0010705)
(0.000628721 1.6502e-06 -0.00107047)
(0.000628513 3.68026e-06 -0.00107051)
(0.000628206 8.62897e-06 -0.00107055)
(0.000627345 2.05109e-05 -0.0010696)
(0.000624613 4.81008e-05 -0.00106464)
(0.00071959 3.18743e-08 -0.00104671)
(0.000719585 1.15207e-07 -0.00104671)
(0.000719496 2.71402e-07 -0.00104678)
(0.000719486 5.89675e-07 -0.0010468)
(0.000719502 1.27289e-06 -0.00104684)
(0.000719187 2.90669e-06 -0.00104701)
(0.000740593 1.02645e-05 -0.00104044)
(0.000718364 1.1955e-05 -0.00104781)
(0.000716614 3.11242e-05 -0.00104587)
(0.000729948 1.43788e-08 -0.00104655)
(0.000729947 1.47538e-07 -0.00104655)
(0.000729948 3.76713e-07 -0.00104653)
(0.000729942 8.62191e-07 -0.0010465)
(0.000729888 1.93256e-06 -0.00104643)
(0.00072947 4.26571e-06 -0.00104628)
(0.000728087 8.99299e-06 -0.00104587)
(0.000728148 2.13477e-05 -0.0010449)
(0.000725617 5.08775e-05 -0.00103991)
(0.000831488 2.91566e-08 -0.00101918)
(0.00083149 1.25534e-07 -0.00101918)
(0.000831494 2.90399e-07 -0.00101918)
(0.000831511 6.13738e-07 -0.0010192)
(0.000831565 1.289e-06 -0.00101922)
(0.000832202 2.73076e-06 -0.00101897)
(0.000835288 5.10929e-06 -0.00101797)
(0.000832981 1.16846e-05 -0.00101904)
(0.000829913 2.89539e-05 -0.00101841)
(0.000850844 2.5598e-08 -0.00101552)
(0.000850843 1.68674e-07 -0.00101551)
(0.000850837 4.1651e-07 -0.0010155)
(0.000850829 9.25161e-07 -0.00101547)
(0.000850839 2.02941e-06 -0.00101538)
(0.000850968 4.48717e-06 -0.00101518)
(0.000851001 1.02087e-05 -0.00101504)
(0.000850289 2.36039e-05 -0.00101419)
(0.000846307 5.49873e-05 -0.00100961)
(0.000995876 1.44371e-08 -0.000974008)
(0.000995879 1.06059e-07 -0.00097401)
(0.000995891 2.56173e-07 -0.000974014)
(0.000995924 5.52617e-07 -0.000974022)
(0.000996007 1.17254e-06 -0.000974039)
(0.000996268 2.50828e-06 -0.000974068)
(0.000996372 5.52252e-06 -0.000974274)
(0.000996692 1.24429e-05 -0.000974509)
(0.000993205 3.1466e-05 -0.000973502)
(0.00100551 1.19719e-08 -0.000981234)
(0.0010055 1.91732e-07 -0.000981215)
(0.00100551 4.80025e-07 -0.000981191)
(0.00100553 1.05821e-06 -0.000981141)
(0.0010056 2.30796e-06 -0.000981033)
(0.00100572 5.11328e-06 -0.000980829)
(0.00100579 1.1574e-05 -0.000980412)
(0.00100469 2.66288e-05 -0.000979286)
(0.000997387 6.11814e-05 -0.00097435)
(0.00116011 2.54524e-08 -0.000946371)
(0.00116013 1.2232e-07 -0.000946353)
(0.00116015 2.88634e-07 -0.000946352)
(0.00116019 6.2546e-07 -0.00094636)
(0.00116026 1.33894e-06 -0.000946388)
(0.0011604 2.88221e-06 -0.000946471)
(0.00116063 6.25654e-06 -0.000946697)
(0.00116063 1.41486e-05 -0.000946798)
(0.00115523 3.60411e-05 -0.000939788)
(0.00118183 3.46105e-08 -0.000945912)
(0.00118184 2.26505e-07 -0.000945892)
(0.00118185 5.59396e-07 -0.000945865)
(0.00118185 1.23697e-06 -0.000945818)
(0.00118185 2.70209e-06 -0.000945728)
(0.0011818 5.9537e-06 -0.000945565)
(0.00118143 1.33166e-05 -0.000945214)
(0.00117935 3.02604e-05 -0.000943846)
(0.00116928 6.75548e-05 -0.000937499)
(0.00137333 7.8549e-09 -0.000889783)
(0.00137337 1.32284e-07 -0.000889771)
(0.00137339 3.31484e-07 -0.000889768)
(0.00137343 7.20313e-07 -0.000889776)
(0.00137351 1.53382e-06 -0.000889805)
(0.00137367 3.27126e-06 -0.000889889)
(0.00137391 7.05655e-06 -0.000890076)
(0.00137363 1.60282e-05 -0.0008901)
(0.00136456 4.24405e-05 -0.00088684)
(0.00139161 3.29863e-09 -0.000897306)
(0.00139161 2.49337e-07 -0.000897287)
(0.00139162 6.4099e-07 -0.000897255)
(0.00139162 1.41973e-06 -0.000897198)
(0.0013916 3.08749e-06 -0.000897091)
(0.0013915 6.76846e-06 -0.00089688)
(0.00139094 1.50668e-05 -0.00089633)
(0.00138777 3.39887e-05 -0.000894024)
(0.00137243 7.62046e-05 -0.000883423)
(0.00157366 -3.46042e-09 -0.000800594)
(0.00157404 1.52229e-07 -0.000800303)
(0.00157407 3.77841e-07 -0.000800285)
(0.00157412 8.14389e-07 -0.000800288)
(0.00157421 1.71565e-06 -0.000800309)
(0.00157439 3.61122e-06 -0.000800373)
(0.00157464 7.68859e-06 -0.000800486)
(0.00157403 1.74814e-05 -0.000800235)
(0.00156087 4.73884e-05 -0.000792427)
(0.001597 1.55534e-08 -0.000795456)
(0.00159702 2.84431e-07 -0.000795434)
(0.00159702 7.27495e-07 -0.000795395)
(0.001597 1.60031e-06 -0.000795336)
(0.00159694 3.45104e-06 -0.000795231)
(0.00159676 7.50434e-06 -0.000795015)
(0.00159587 1.65693e-05 -0.000794371)
(0.00159086 3.72172e-05 -0.000791422)
(0.00156708 8.38176e-05 -0.000778007)
(0.00176027 4.58981e-09 -0.000590759)
(0.00176029 1.71698e-07 -0.000590757)
(0.0017603 4.25695e-07 -0.000590757)
(0.00176035 9.12506e-07 -0.000590766)
(0.00176043 1.90612e-06 -0.000590796)
(0.00176059 3.96897e-06 -0.00059088)
(0.00176071 8.36445e-06 -0.000591044)
(0.00175927 1.89358e-05 -0.000591249)
(0.00173852 5.16702e-05 -0.000591889)
(0.00175813 2.2536e-08 -0.000611046)
(0.00175812 3.24771e-07 -0.000611027)
(0.00175811 8.22156e-07 -0.000610989)
(0.00175807 1.79903e-06 -0.000610922)
(0.00175798 3.85594e-06 -0.000610817)
(0.00175765 8.31301e-06 -0.000610682)
(0.00175634 1.81387e-05 -0.000610148)
(0.00174951 3.99558e-05 -0.000607863)
(0.00171881 8.76846e-05 -0.000597464)
(0.00183039 2.12308e-08 -0.00039813)
(0.0018304 1.94763e-07 -0.000398131)
(0.00183041 4.73844e-07 -0.000398133)
(0.00183046 1.01385e-06 -0.000398145)
(0.00183056 2.12253e-06 -0.000398174)
(0.00183075 4.44642e-06 -0.000398226)
(0.00183095 9.48253e-06 -0.000398249)
(0.00182979 2.16892e-05 -0.000397712)
(0.00181357 5.79254e-05 -0.000391271)
(0.00182642 3.33398e-08 -0.000407266)
(0.00182641 3.5922e-07 -0.00040726)
(0.00182638 8.91437e-07 -0.000407242)
(0.00182632 1.94291e-06 -0.000407216)
(0.0018262 4.16273e-06 -0.000407165)
(0.00182586 8.99169e-06 -0.000407037)
(0.00182449 1.973e-05 -0.000406467)
(0.00181801 4.38609e-05 -0.000403429)
(0.00179053 9.716e-05 -0.000389274)
(0.00180283 2.34558e-08 -0.000125845)
(0.00180284 1.93e-07 -0.000125845)
(0.00180286 4.65687e-07 -0.000125845)
(0.00180291 9.86271e-07 -0.000125849)
(0.00180302 2.03963e-06 -0.000125857)
(0.00180325 4.21136e-06 -0.00012588)
(0.00180353 8.81027e-06 -0.000125931)
(0.00180275 1.96235e-05 -0.000126072)
(0.00179013 5.26411e-05 -0.000128694)
(0.00180506 2.91322e-08 -0.000146686)
(0.00180506 3.6659e-07 -0.000146679)
(0.00180503 9.093e-07 -0.00014666)
(0.00180498 1.96834e-06 -0.00014662)
(0.00180485 4.17853e-06 -0.00014654)
(0.00180454 8.92475e-06 -0.000146377)
(0.00180334 1.93326e-05 -0.000146044)
(0.00179752 4.25267e-05 -0.000145431)
(0.00177141 9.44911e-05 -0.00014331)
(-6.11609e-05 8.16207e-09 -0.000977644)
(-6.11597e-05 7.10956e-08 -0.000977645)
(-6.1158e-05 1.80426e-07 -0.000977648)
(-6.1164e-05 4.18304e-07 -0.000977652)
(-6.11032e-05 9.16675e-07 -0.000977582)
(-6.10982e-05 2.01324e-06 -0.000977688)
(-6.11258e-05 4.55324e-06 -0.000977979)
(-6.10384e-05 1.01397e-05 -0.000978101)
(-6.30384e-05 2.5751e-05 -0.000975361)
(-0.000103628 1.62366e-08 -0.000940486)
(-0.000103607 6.59841e-08 -0.000940505)
(-0.000103529 1.80981e-07 -0.000940587)
(-0.00010351 4.83565e-07 -0.000940588)
(-0.000107638 1.54777e-06 -0.000934894)
(-0.000103601 2.11611e-06 -0.000940501)
(-0.000103671 5.25718e-06 -0.000940715)
(-0.000109065 2.14107e-05 -0.000934064)
(-0.000112863 4.9011e-05 -0.000928724)
(-0.000152322 3.57016e-08 -0.000900104)
(-0.000152284 1.315e-07 -0.000899949)
(-0.00014251 2.56315e-07 -0.000905629)
(-0.000142426 4.28187e-07 -0.000905575)
(-0.000142856 9.89515e-07 -0.000905585)
(-0.000152432 3.89917e-06 -0.000900037)
(-0.000152635 8.83764e-06 -0.000900326)
(-0.000142903 1.1635e-05 -0.000906186)
(-0.000144374 3.01855e-05 -0.000901721)
(-0.000191317 1.75974e-08 -0.000857988)
(-0.000191278 1.12655e-07 -0.000858005)
(-0.00019156 3.06987e-07 -0.000857543)
(-0.000191744 4.19468e-07 -0.000857393)
(-0.000191722 9.12894e-07 -0.000857443)
(-0.000191239 2.07228e-06 -0.000858069)
(-0.000191319 4.98401e-06 -0.000858541)
(-0.000191418 1.1367e-05 -0.000858484)
(-0.000190832 3.0207e-05 -0.000853265)
(-0.000236584 8.02274e-09 -0.000811878)
(-0.000236522 6.21333e-08 -0.000811912)
(-0.000236236 1.64655e-07 -0.000812026)
(-0.000236006 4.07627e-07 -0.000812172)
(-0.00023607 9.38177e-07 -0.000812174)
(-0.000236247 2.10377e-06 -0.000812219)
(-0.000236338 4.74533e-06 -0.000812606)
(-0.000236284 1.09682e-05 -0.000812913)
(-0.00023418 2.9345e-05 -0.000807755)
(-0.000266425 2.10247e-08 -0.000777793)
(-0.00026641 8.02531e-08 -0.000777806)
(-0.000266264 2.07373e-07 -0.000777871)
(-0.000266265 4.58889e-07 -0.000777875)
(-0.000266304 1.00086e-06 -0.000777889)
(-0.000266363 2.25741e-06 -0.000778012)
(-0.000266467 5.14842e-06 -0.000778414)
(-0.000266238 1.18378e-05 -0.000778985)
(-0.000266569 3.13628e-05 -0.000775015)
(-0.000305597 2.32927e-08 -0.000745212)
(-0.000305586 9.1697e-08 -0.000745217)
(-0.000305562 2.12519e-07 -0.000745228)
(-0.000305471 4.54505e-07 -0.00074526)
(-0.000305514 1.01758e-06 -0.000745289)
(-0.00030558 2.29568e-06 -0.000745424)
(-0.000305735 5.2273e-06 -0.000745836)
(-0.000305355 1.2269e-05 -0.000746299)
(-0.000298741 3.25865e-05 -0.000741856)
(-0.000355322 2.70621e-08 -0.000714992)
(-0.000355322 8.53851e-08 -0.000714992)
(-0.000355317 2.05073e-07 -0.000714998)
(-0.000355177 4.56183e-07 -0.000715026)
(-0.000355226 1.01082e-06 -0.000715055)
(-0.000355298 2.25037e-06 -0.000715196)
(-0.000355448 5.02621e-06 -0.000715612)
(-0.000355143 1.14994e-05 -0.000715884)
(-0.000351328 3.07104e-05 -0.000709543)
(-0.00039161 1.82058e-08 -0.000708799)
(-0.000391611 8.79375e-08 -0.0007088)
(-0.000391611 2.1092e-07 -0.000708808)
(-0.000391587 4.70532e-07 -0.000708839)
(-0.000391458 1.06115e-06 -0.00070894)
(-0.000391515 2.37671e-06 -0.000709081)
(-0.000391482 5.33288e-06 -0.000709517)
(-0.00039124 1.23298e-05 -0.000709776)
(-0.000393225 3.3065e-05 -0.000701912)
(-0.000457703 1.97429e-08 -0.000690562)
(-0.000457706 9.33784e-08 -0.000690562)
(-0.000457711 2.25687e-07 -0.000690565)
(-0.000457511 5.01512e-07 -0.000690686)
(-0.000456578 1.10377e-06 -0.000691142)
(-0.000456965 2.42905e-06 -0.000691126)
(-0.000457181 5.38681e-06 -0.000691454)
(-0.000456817 1.21734e-05 -0.000691783)
(-0.000449377 3.17358e-05 -0.000686782)
(-0.000509426 2.56694e-08 -0.000694162)
(-0.000509425 9.66929e-08 -0.000694162)
(-0.000509424 2.35446e-07 -0.000694171)
(-0.00050942 5.20695e-07 -0.000694194)
(-0.000509577 1.12254e-06 -0.000694214)
(-0.000509315 2.46591e-06 -0.00069445)
(-0.000509431 5.46487e-06 -0.000694786)
(-0.000509734 1.25542e-05 -0.000694932)
(-0.000512299 3.33216e-05 -0.000688205)
(-0.000601407 2.13276e-08 -0.000681427)
(-0.000601408 1.01214e-07 -0.000681429)
(-0.000601412 2.46166e-07 -0.000681435)
(-0.000601426 5.44396e-07 -0.000681452)
(-0.000601456 1.19305e-06 -0.000681499)
(-0.000601351 2.60957e-06 -0.000681742)
(-0.000601506 5.79022e-06 -0.000682074)
(-0.000601468 1.33602e-05 -0.000682201)
(-0.000599044 3.60705e-05 -0.000674628)
(-0.000690788 3.62195e-09 -0.000641655)
(-0.000690777 8.80575e-08 -0.000641681)
(-0.000690783 2.31071e-07 -0.000641689)
(-0.000690802 5.21055e-07 -0.000641707)
(-0.000690847 1.15258e-06 -0.000641747)
(-0.000690904 2.5241e-06 -0.000641885)
(-0.000690981 5.58973e-06 -0.000642221)
(-0.000690698 1.28968e-05 -0.000642369)
(-0.000684154 3.47301e-05 -0.000636667)
(-0.000758528 7.75657e-09 -0.00056394)
(-0.00075852 1.00205e-07 -0.000563951)
(-0.00075853 2.47653e-07 -0.000563958)
(-0.000758555 5.4675e-07 -0.000563972)
(-0.000758613 1.1825e-06 -0.000564008)
(-0.000758715 2.56443e-06 -0.000564117)
(-0.000758824 5.52577e-06 -0.000564403)
(-0.000758544 1.23894e-05 -0.000564704)
(-0.000752145 3.27181e-05 -0.000561563)
(-0.000808397 9.7442e-09 -0.000452828)
(-0.000808402 1.11737e-07 -0.000452831)
(-0.000808418 2.7736e-07 -0.000452833)
(-0.000808451 6.04846e-07 -0.000452842)
(-0.00080852 1.28938e-06 -0.000452867)
(-0.000808654 2.74106e-06 -0.000452947)
(-0.000808879 5.84777e-06 -0.000453148)
(-0.000808787 1.28907e-05 -0.000453466)
(-0.000803232 3.237e-05 -0.000452976)
(-0.000834721 1.36051e-08 -0.000343417)
(-0.000834727 1.28072e-07 -0.000343416)
(-0.000834746 3.15709e-07 -0.000343415)
(-0.000834786 6.8308e-07 -0.000343416)
(-0.00083487 1.44338e-06 -0.000343426)
(-0.000835043 3.04169e-06 -0.000343468)
(-0.000835344 6.44426e-06 -0.000343594)
(-0.000835395 1.41284e-05 -0.000343839)
(-0.000829914 3.52591e-05 -0.000344637)
(-0.000846461 1.9604e-08 -0.000258456)
(-0.000846469 1.43658e-07 -0.000258456)
(-0.000846487 3.49501e-07 -0.000258455)
(-0.000846528 7.51157e-07 -0.000258454)
(-0.000846614 1.57157e-06 -0.000258457)
(-0.000846794 3.28359e-06 -0.000258494)
(-0.000847116 6.89919e-06 -0.000258581)
(-0.00084724 1.49276e-05 -0.000258642)
(-0.000842955 3.57685e-05 -0.00025746)
(-0.000853169 2.16637e-08 -0.000159374)
(-0.000853177 1.54395e-07 -0.000159374)
(-0.000853196 3.72628e-07 -0.000159373)
(-0.00085324 7.91374e-07 -0.00015937)
(-0.000853333 1.64364e-06 -0.00015937)
(-0.00085352 3.39466e-06 -0.000159392)
(-0.000853856 7.03971e-06 -0.000159433)
(-0.000853976 1.51121e-05 -0.000159286)
(-0.000848583 3.70006e-05 -0.000157085)
(-0.00084989 1.63204e-08 -5.08597e-05)
(-0.000849899 1.58771e-07 -5.0859e-05)
(-0.000849917 3.86201e-07 -5.08568e-05)
(-0.00084996 8.18577e-07 -5.0853e-05)
(-0.000850052 1.68881e-06 -5.08483e-05)
(-0.000850242 3.46974e-06 -5.08454e-05)
(-0.000850577 7.16978e-06 -5.08464e-05)
(-0.000850633 1.53721e-05 -5.08038e-05)
(-0.000844642 3.73192e-05 -5.09961e-05)
(-5.68813e-05 8.22549e-09 -0.000990524)
(-5.68846e-05 8.79296e-08 -0.000990522)
(-5.69115e-05 2.24283e-07 -0.000990496)
(-5.69437e-05 5.44424e-07 -0.000990434)
(-5.67991e-05 1.24124e-06 -0.000990389)
(-5.68653e-05 2.8693e-06 -0.000990277)
(-5.69845e-05 6.85281e-06 -0.00099011)
(-5.67264e-05 1.67847e-05 -0.00098945)
(-5.7497e-05 4.12443e-05 -0.000985222)
(-0.000100924 1.98378e-08 -0.000947078)
(-0.000100923 9.37518e-08 -0.000947096)
(-0.000100934 2.50805e-07 -0.000947103)
(-0.000100963 6.10999e-07 -0.000947051)
(-0.000101172 1.33933e-06 -0.000946882)
(-0.000101062 3.17286e-06 -0.000946763)
(-0.000101162 7.67716e-06 -0.000946474)
(-0.000101073 1.77067e-05 -0.000945856)
(-0.00010333 4.10456e-05 -0.000941482)
(-0.000146025 1.70217e-09 -0.000912585)
(-0.000146017 1.48559e-07 -0.000912519)
(-0.000146309 3.95715e-07 -0.000912233)
(-0.000146551 6.34777e-07 -0.000912075)
(-0.0001466 1.34546e-06 -0.000912074)
(-0.000146268 3.01695e-06 -0.000912208)
(-0.000146163 7.43351e-06 -0.000912126)
(-0.000146173 1.88112e-05 -0.000911076)
(-0.00014931 4.60039e-05 -0.000905371)
(-0.000193787 6.14444e-10 -0.000863006)
(-0.000193777 1.21047e-07 -0.000862989)
(-0.000193845 2.78174e-07 -0.000862929)
(-0.000193761 5.92225e-07 -0.000862927)
(-0.000193792 1.40411e-06 -0.000862844)
(-0.000193715 3.35215e-06 -0.000862791)
(-0.000193674 8.17097e-06 -0.000862731)
(-0.000193119 2.01811e-05 -0.000862288)
(-0.000193154 4.9609e-05 -0.000856464)
(-0.0002365 2.80754e-08 -0.000818884)
(-0.000236486 9.7172e-08 -0.000818895)
(-0.00023645 2.53254e-07 -0.0008189)
(-0.000236266 6.10967e-07 -0.000818991)
(-0.000236276 1.45373e-06 -0.000818934)
(-0.000236314 3.43205e-06 -0.000818849)
(-0.000236365 8.28012e-06 -0.000818725)
(-0.000235799 2.03512e-05 -0.000818029)
(-0.000235597 4.95121e-05 -0.000810798)
(-0.00027261 7.02989e-09 -0.000778554)
(-0.000272597 1.13683e-07 -0.000778562)
(-0.000272561 2.97096e-07 -0.000778569)
(-0.000272522 6.90008e-07 -0.000778579)
(-0.000272504 1.57419e-06 -0.000778544)
(-0.000272491 3.70565e-06 -0.000778471)
(-0.000272455 8.94328e-06 -0.00077836)
(-0.000272021 2.20872e-05 -0.000777835)
(-0.00027105 5.47836e-05 -0.000773832)
(-0.000312169 1.19578e-08 -0.000743238)
(-0.000312165 1.24094e-07 -0.000743237)
(-0.000312162 3.11084e-07 -0.000743226)
(-0.000312161 7.16155e-07 -0.000743202)
(-0.00031218 1.65188e-06 -0.000743149)
(-0.00031221 3.8769e-06 -0.000743072)
(-0.000312195 9.31615e-06 -0.000742952)
(-0.000310893 2.28307e-05 -0.000742304)
(-0.000308224 5.49936e-05 -0.000735056)
(-0.000349138 1.19748e-08 -0.000722698)
(-0.000349136 1.22148e-07 -0.000722697)
(-0.000349133 3.09358e-07 -0.00072269)
(-0.000349127 7.20374e-07 -0.000722669)
(-0.000349119 1.66997e-06 -0.000722625)
(-0.000349106 3.89686e-06 -0.000722561)
(-0.000349014 9.24048e-06 -0.000722443)
(-0.000348163 2.21706e-05 -0.000721332)
(-0.000342892 5.28474e-05 -0.000714011)
(-0.000396947 1.76139e-08 -0.000710101)
(-0.000396947 1.28197e-07 -0.000710099)
(-0.000396937 3.2327e-07 -0.000710095)
(-0.000396907 7.53339e-07 -0.000710094)
(-0.000396856 1.7589e-06 -0.000710079)
(-0.000396786 4.08736e-06 -0.000710015)
(-0.000396603 9.59686e-06 -0.000709867)
(-0.000394689 2.27969e-05 -0.000709081)
(-0.000386351 5.29141e-05 -0.000702522)
(-0.000452207 9.35261e-09 -0.000696598)
(-0.000452213 1.39299e-07 -0.000696583)
(-0.000452204 3.63624e-07 -0.000696573)
(-0.000452162 8.40523e-07 -0.000696564)
(-0.000452136 1.90634e-06 -0.000696509)
(-0.0004521 4.37491e-06 -0.000696431)
(-0.000452013 1.02214e-05 -0.000696225)
(-0.000451351 2.41934e-05 -0.000695054)
(-0.000443677 5.50465e-05 -0.000688599)
(-0.000523514 2.23695e-08 -0.000696341)
(-0.000523513 1.533e-07 -0.000696336)
(-0.0005235 3.90586e-07 -0.000696326)
(-0.000523469 8.87345e-07 -0.000696305)
(-0.000523415 1.99678e-06 -0.000696262)
(-0.00052331 4.55507e-06 -0.00069617)
(-0.000522965 1.05398e-05 -0.00069596)
(-0.000520857 2.47568e-05 -0.000694774)
(-0.000514658 5.72707e-05 -0.000686927)
(-0.000612806 1.66728e-08 -0.000684822)
(-0.000612799 1.60579e-07 -0.000684818)
(-0.000612789 4.15273e-07 -0.000684806)
(-0.000612768 9.49801e-07 -0.000684779)
(-0.000612721 2.14258e-06 -0.000684728)
(-0.000612606 4.88082e-06 -0.000684639)
(-0.000612238 1.12962e-05 -0.000684396)
(-0.000610388 2.64648e-05 -0.000682935)
(-0.000600796 6.10907e-05 -0.000674336)
(-0.000698079 1.07367e-08 -0.000645071)
(-0.000698073 1.76445e-07 -0.000645067)
(-0.000698064 4.60559e-07 -0.000645054)
(-0.000698046 1.04316e-06 -0.000645021)
(-0.000697996 2.31623e-06 -0.000644961)
(-0.000697853 5.16981e-06 -0.000644872)
(-0.000697329 1.17022e-05 -0.000644678)
(-0.000694704 2.6773e-05 -0.000643288)
(-0.000681595 6.04508e-05 -0.000634642)
(-0.000764266 2.3847e-08 -0.00056927)
(-0.000764261 2.01491e-07 -0.000569262)
(-0.000764254 5.06268e-07 -0.000569242)
(-0.000764235 1.12544e-06 -0.000569204)
(-0.000764186 2.4563e-06 -0.000569136)
(-0.00076404 5.376e-06 -0.000569035)
(-0.000763527 1.18715e-05 -0.000568857)
(-0.000761023 2.64687e-05 -0.000567926)
(-0.00074875 5.84425e-05 -0.000561934)
(-0.000809112 2.37279e-08 -0.000469019)
(-0.000809109 2.28026e-07 -0.000469007)
(-0.000809102 5.70676e-07 -0.000468979)
(-0.000809085 1.25354e-06 -0.000468924)
(-0.000809037 2.69532e-06 -0.000468824)
(-0.0008089 5.80863e-06 -0.000468666)
(-0.000808436 1.26524e-05 -0.000468414)
(-0.000806276 2.78099e-05 -0.000467731)
(-0.000796265 6.06393e-05 -0.000463715)
(-0.000836738 3.44682e-08 -0.000361123)
(-0.000836735 2.62826e-07 -0.000361111)
(-0.000836726 6.5149e-07 -0.000361078)
(-0.000836705 1.42064e-06 -0.000361011)
(-0.000836653 3.03233e-06 -0.000360888)
(-0.000836521 6.48005e-06 -0.000360687)
(-0.000836099 1.39474e-05 -0.000360362)
(-0.000834148 3.03104e-05 -0.000359793)
(-0.000825312 6.52269e-05 -0.000358219)
(-0.000851162 3.02031e-08 -0.000265783)
(-0.000851155 2.92638e-07 -0.000265775)
(-0.000851139 7.20969e-07 -0.000265754)
(-0.000851103 1.55919e-06 -0.000265714)
(-0.000851024 3.29682e-06 -0.000265647)
(-0.000850849 6.97815e-06 -0.00026554)
(-0.00085037 1.48799e-05 -0.000265337)
(-0.000848528 3.18959e-05 -0.00026472)
(-0.000840946 6.73134e-05 -0.000262238)
(-0.000858845 3.35717e-08 -0.000165839)
(-0.000858837 3.07768e-07 -0.000165835)
(-0.000858815 7.53965e-07 -0.000165821)
(-0.000858768 1.61638e-06 -0.000165794)
(-0.000858669 3.38428e-06 -0.000165748)
(-0.000858458 7.08668e-06 -0.000165675)
(-0.00085791 1.49566e-05 -0.000165513)
(-0.00085579 3.18521e-05 -0.000164847)
(-0.000846832 6.7115e-05 -0.000161612)
(-0.000852831 2.7312e-08 -6.40326e-05)
(-0.000852821 3.21698e-07 -6.40283e-05)
(-0.000852799 7.93085e-07 -6.40122e-05)
(-0.000852753 1.69485e-06 -6.39795e-05)
(-0.000852657 3.5303e-06 -6.39173e-05)
(-0.000852457 7.35197e-06 -6.38058e-05)
(-0.000851918 1.54319e-05 -6.36062e-05)
(-0.000849749 3.26661e-05 -6.31715e-05)
(-0.000840643 6.84574e-05 -6.14817e-05)
(-5.26445e-05 0.000657515 -0.000288932)
(-5.78754e-05 0.000650395 -0.000269425)
(-6.26264e-05 0.000641684 -0.000249753)
(-6.45578e-05 0.00063348 -0.000229056)
(-6.82171e-05 0.000625243 -0.000208951)
(-7.24727e-05 0.000617166 -0.000188562)
(-7.72315e-05 0.000608027 -0.000169369)
(-8.3214e-05 0.000597638 -0.000151169)
(-8.90177e-05 0.000585311 -0.000134783)
(-9.55191e-05 0.000570643 -0.000117086)
(-0.000101083 0.000554686 -0.000100793)
(-0.000108015 0.00053797 -8.57564e-05)
(-0.000113749 0.000521924 -7.12624e-05)
(-0.000120404 0.000504902 -5.81697e-05)
(-0.000125009 0.000488981 -4.61132e-05)
(-0.000128654 0.000472921 -3.47073e-05)
(-0.000132885 0.000457356 -2.35341e-05)
(-0.000138656 0.000442828 -1.31818e-05)
(-0.000145768 0.000429212 -3.8445e-06)
(-4.809e-05 0.000658557 -0.000261343)
(-5.48316e-05 0.000649654 -0.000243785)
(-5.75589e-05 0.000640813 -0.000224709)
(-6.06812e-05 0.000632307 -0.000205819)
(-6.54788e-05 0.000623019 -0.000187097)
(-7.03155e-05 0.000614176 -0.00016892)
(-7.6206e-05 0.000604257 -0.000152196)
(-8.18942e-05 0.00059329 -0.000137311)
(-8.75894e-05 0.000581451 -0.000122606)
(-9.25709e-05 0.000568623 -0.000108108)
(-9.74299e-05 0.000553905 -9.41075e-05)
(-0.000100636 0.000540168 -7.9197e-05)
(-0.000104161 0.000525655 -6.68076e-05)
(-0.000109116 0.000509684 -5.44071e-05)
(-0.000115168 0.000493845 -4.29307e-05)
(-0.000120129 0.000478466 -3.18756e-05)
(-0.000124161 0.000463658 -2.17144e-05)
(-0.000127818 0.000449785 -1.23313e-05)
(-0.000131892 0.000438694 -4.06725e-06)
(-4.05796e-05 0.000669695 -0.000268759)
(-4.61154e-05 0.000661039 -0.000248868)
(-5.20993e-05 0.000651077 -0.000229729)
(-5.36965e-05 0.000642929 -0.0002094)
(-5.70396e-05 0.000633973 -0.000189366)
(-6.2756e-05 0.000624499 -0.000169632)
(-6.84658e-05 0.000614501 -0.000151428)
(-7.475e-05 0.000603309 -0.000134625)
(-8.09969e-05 0.000591053 -0.000118951)
(-8.71496e-05 0.000578208 -0.000103606)
(-9.25577e-05 0.000562685 -8.84564e-05)
(-9.83826e-05 0.000546145 -7.37394e-05)
(-0.000104563 0.000529287 -5.99609e-05)
(-0.000111487 0.000512838 -4.73728e-05)
(-0.000117205 0.000497276 -3.53547e-05)
(-0.000121939 0.000482491 -2.3996e-05)
(-0.00012608 0.000468158 -1.36067e-05)
(-0.000131013 0.000453658 -4.21337e-06)
(-0.000137359 0.000439939 4.67881e-06)
(-3.73414e-05 0.000669371 -0.000241884)
(-4.42864e-05 0.000659096 -0.000224558)
(-4.76862e-05 0.000649093 -0.000207949)
(-5.11256e-05 0.000640168 -0.000190555)
(-5.63873e-05 0.000630464 -0.000173921)
(-6.24567e-05 0.00062039 -0.000155259)
(-6.88754e-05 0.000609708 -0.000138555)
(-7.49728e-05 0.000598417 -0.000123538)
(-8.06627e-05 0.000586854 -0.0001093)
(-8.56477e-05 0.000576064 -9.63157e-05)