/*--------------------------------*- C++ -*----------------------------------*\
| =========                 |                                                 |
| \\      /  F ield         | foam-extend: Open Source CFD                    |
|  \\    /   O peration     | Version:     3.1                                |
|   \\  /    A nd           | Web:         http://www.extend-project.de       |
|    \\/     M anipulation  |                                                 |
\*---------------------------------------------------------------------------*/
FoamFile
{
    version     2.0;
    format      ascii;
    class       volScalarField;
    location    "345600";
    object      UGrad;
}
// * * * * * * * * * * * * * * * * * * * * * * * * * * * * * * * * * * * * * //

dimensions      [0 0 0 0 0 0 0];

internalField   nonuniform List<scalar> 
23248
(
0.372933
0.372918
0.372934
0.373058
0.37496
0.377641
0.391688
0.460872
0.737671
0.340526
0.340505
0.340597
0.341435
0.340965
0.341627
0.345138
0.367488
0.442738
0.319743
0.319742
0.319763
0.319869
0.320793
0.324047
0.341047
0.41976
0.721037
0.32086
0.320854
0.320832
0.321083
0.320872
0.321175
0.324232
0.347028
0.432251
0.330266
0.330242
0.33021
0.330183
0.33245
0.335421
0.351073
0.426375
0.715288
0.313612
0.313579
0.313544
0.313624
0.313486
0.313773
0.316979
0.338789
0.422674
0.328624
0.328617
0.328634
0.328727
0.329699
0.332904
0.348858
0.42143
0.703466
0.334865
0.33487
0.334845
0.334847
0.334611
0.334951
0.337782
0.357074
0.435247
0.463322
0.463257
0.463211
0.463125
0.466383
0.468269
0.479179
0.534986
0.744201
0.34381
0.3438
0.343803
0.34296
0.342965
0.343553
0.347076
0.367809
0.43938
0.243815
0.243819
0.243846
0.243991
0.245841
0.250194
0.271774
0.363883
0.740535
0.30073
0.300713
0.300684
0.30061
0.300123
0.300301
0.303641
0.328174
0.415152
0.35141
0.351413
0.351437
0.351479
0.351638
0.356673
0.372563
0.448423
0.744601
0.331559
0.331557
0.331524
0.331479
0.33145
0.332019
0.336368
0.36118
0.450257
0.420501
0.420498
0.42042
0.420461
0.420469
0.431494
0.443092
0.520471
0.760193
0.351375
0.35136
0.351326
0.351316
0.351327
0.35224
0.35594
0.380376
0.455855
0.425308
0.425275
0.428399
0.428448
0.428917
0.431297
0.446533
0.516253
0.783907
0.378646
0.37866
0.378383
0.378393
0.378399
0.378853
0.383945
0.410691
0.50041
0.560201
0.560027
0.565327
0.565325
0.565754
0.569834
0.568119
0.6721
0.852066
0.411912
0.411899
0.411278
0.411311
0.41139
0.411091
0.41412
0.441459
0.523732
0.511451
0.511668
0.509549
0.509825
0.510467
0.520007
0.455823
0.604389
0.871643
0.454327
0.454318
0.454172
0.454156
0.454415
0.455671
0.442897
0.487654
0.571549
0.600562
0.600518
0.600527
0.600533
0.600936
0.595366
0.581934
0.71719
0.935847
0.509289
0.509277
0.509294
0.509378
0.50987
0.512672
0.52051
0.54703
0.621719
0.982268
0.982172
0.981947
0.98134
0.98002
0.975018
0.97532
1.02474
1.22383
0.582995
0.583043
0.583106
0.583275
0.583783
0.58556
0.592588
0.622302
0.690831
0.839797
0.839725
0.83955
0.839226
0.838973
0.840533
0.854309
0.928964
1.20462
0.672121
0.672138
0.672206
0.672359
0.672863
0.674756
0.682606
0.711702
0.764964
1.00564
1.00395
1.0035
1.00286
1.0019
1.00202
1.01269
1.08632
1.33508
0.64696
0.646984
0.647006
0.647099
0.647529
0.649565
0.658779
0.694141
0.777092
0.948237
0.956004
0.955455
0.954961
0.954538
0.955948
0.970723
1.06041
1.35408
0.642423
0.642442
0.642478
0.642539
0.642943
0.644963
0.654165
0.693346
0.797833
1.02097
1.0209
1.02061
1.02013
1.01953
1.0205
1.03376
1.12033
1.45657
0.638054
0.638032
0.638032
0.638078
0.638549
0.641191
0.651994
0.69427
0.801924
0.64233
0.642348
0.642339
0.642518
0.643726
0.650145
0.681145
0.823403
1.30608
0.590773
0.590785
0.590753
0.590778
0.591168
0.593758
0.606943
0.659568
0.78217
0.811523
0.811597
0.811461
0.811212
0.811283
0.81379
0.830345
0.916127
1.23246
0.62338
0.623342
0.62332
0.623356
0.62379
0.626251
0.637736
0.681522
0.789197
0.354407
0.354377
0.354336
0.354504
0.356388
0.359109
0.373496
0.438564
0.686795
0.27656
0.276492
0.275676
0.275573
0.278331
0.278656
0.304613
0.341995
0.616035
0.343366
0.327586
0.303662
0.309082
0.257262
0.328395
0.339342
0.382379
0.710794
0.273683
0.272916
0.333861
0.334856
0.335536
0.279413
0.302666
0.443387
0.741601
0.345487
0.346069
0.347566
0.344444
0.344739
0.348463
0.366984
0.445968
0.715839
0.296964
0.296745
0.295021
0.295298
0.296942
0.301815
0.325014
0.420574
0.714065
0.22025
0.220444
0.220395
0.22205
0.222566
0.229094
0.260228
0.381302
0.750483
0.435578
0.435615
0.435718
0.437122
0.437918
0.44074
0.456987
0.535792
0.830427
0.204494
0.204531
0.204593
0.204153
0.205809
0.21324
0.246266
0.370309
0.795717
0.568756
0.568764
0.568707
0.572285
0.549538
0.561874
0.574499
0.635036
0.865902
0.390953
0.39096
0.390976
0.39119
0.390695
0.395601
0.416593
0.512555
0.882886
0.411571
0.411545
0.411583
0.411753
0.41265
0.418409
0.44067
0.540645
0.939916
0.464752
0.464621
0.464632
0.464734
0.465431
0.469225
0.487373
0.570991
0.918637
0.512023
0.512581
0.512622
0.512719
0.513231
0.516364
0.532623
0.59699
0.877422
0.546892
0.546903
0.546862
0.546886
0.547339
0.55015
0.563748
0.623568
0.865839
0.547452
0.547427
0.547335
0.547236
0.547536
0.550224
0.564229
0.626348
0.859043
0.41437
0.414365
0.414394
0.414653
0.415919
0.421294
0.443403
0.525818
0.782052
0.478889
0.478889
0.478923
0.479107
0.48009
0.485119
0.505552
0.583093
0.841346
0.483415
0.483407
0.48338
0.483455
0.484235
0.488494
0.507423
0.582793
0.833954
0.341449
0.341394
0.341424
0.340638
0.342105
0.342666
0.345887
0.365786
0.439764
0.295664
0.295708
0.29608
0.296409
0.305307
0.295444
0.300313
0.334515
0.408715
0.293659
0.293723
0.302378
0.301118
0.302124
0.29343
0.29839
0.339315
0.44102
0.312611
0.312561
0.312735
0.314419
0.314194
0.314622
0.319634
0.350721
0.454905
0.308343
0.308356
0.308375
0.308342
0.308356
0.309257
0.315506
0.348657
0.455193
0.262103
0.262118
0.261945
0.260988
0.261254
0.262726
0.271659
0.314607
0.446346
0.276509
0.27656
0.276584
0.277226
0.277303
0.27851
0.28695
0.332694
0.455647
0.24526
0.24528
0.245273
0.244643
0.244943
0.246858
0.257316
0.299285
0.426695
0.289905
0.289913
0.289902
0.289767
0.289363
0.29117
0.300743
0.348817
0.470979
0.303319
0.303108
0.303077
0.302751
0.302097
0.304031
0.31426
0.35314
0.472179
0.419616
0.419583
0.419587
0.419695
0.420047
0.420978
0.429604
0.475729
0.560277
0.420292
0.42028
0.420264
0.420268
0.420421
0.421084
0.428885
0.461965
0.55483
0.391789
0.391754
0.391723
0.391711
0.391867
0.393141
0.400973
0.437978
0.543505
0.418507
0.418491
0.418497
0.418512
0.41875
0.420234
0.427793
0.460516
0.555917
0.428893
0.428882
0.428881
0.42892
0.429219
0.4308
0.438681
0.471523
0.557287
0.412846
0.412823
0.412786
0.412787
0.413064
0.415036
0.424602
0.462065
0.550691
0.382156
0.382141
0.382103
0.382096
0.382437
0.384704
0.395818
0.437992
0.534175
0.40786
0.407842
0.407844
0.407942
0.408476
0.411046
0.42201
0.461475
0.549956
0.392171
0.392165
0.392158
0.392226
0.39275
0.3954
0.406941
0.448053
0.537781
0.398249
0.393307
0.390763
0.397746
0.394394
0.388353
0.390401
0.381595
0.386301
0.377322
0.36718
0.35337
0.346444
0.352281
0.337795
0.321942
0.314172
0.306887
0.313844
0.397372
0.402106
0.39158
0.38724
0.387854
0.374611
0.367957
0.344393
0.339309
0.334692
0.326283
0.333081
0.328002
0.334134
0.322173
0.3137
0.302231
0.289794
0.287327
0.400307
0.397809
0.407755
0.381801
0.388251
0.36857
0.364415
0.355097
0.349419
0.34709
0.361384
0.361703
0.348146
0.344712
0.337864
0.328822
0.3089
0.302196
0.291498
0.419346
0.416173
0.365067
0.364712
0.339194
0.365528
0.35271
0.336339
0.321203
0.319337
0.359437
0.319359
0.312412
0.329726
0.32069
0.314753
0.301349
0.286207
0.281727
0.378915
0.390803
0.392787
0.371861
0.359598
0.351526
0.337368
0.33002
0.322394
0.359938
0.345282
0.382732
0.350275
0.33515
0.323659
0.325881
0.326875
0.29668
0.298344
0.382969
0.372168
0.370471
0.335705
0.34025
0.331806
0.328424
0.334814
0.338058
0.331605
0.328871
0.350587
0.304224
0.3026
0.314364
0.310134
0.295751
0.291789
0.288664
0.37091
0.373057
0.375046
0.392596
0.361321
0.345731
0.338574
0.343519
0.350435
0.321406
0.356025
0.363346
0.34556
0.323087
0.311788
0.323842
0.332968
0.318883
0.30854
0.363198
0.363584
0.371936
0.335244
0.32876
0.330895
0.325905
0.34844
0.378698
0.327987
0.343403
0.319956
0.324611
0.279833
0.303687
0.320222
0.326618
0.290417
0.295599
0.376106
0.367496
0.360441
0.362108
0.368066
0.364292
0.365612
0.403613
0.395797
0.334764
0.326583
0.311639
0.335104
0.336047
0.319924
0.307074
0.314833
0.316334
0.319256
0.359653
0.350105
0.342072
0.334935
0.341506
0.341324
0.338651
0.348621
0.347909
0.36729
0.323698
0.293159
0.315252
0.300967
0.279238
0.299106
0.320904
0.296195
0.293914
0.368209
0.370196
0.359786
0.350499
0.387454
0.40101
0.396054
0.392267
0.385494
0.360589
0.337807
0.305947
0.30115
0.325342
0.347309
0.314618
0.300307
0.314946
0.334359
0.366216
0.34688
0.340307
0.346759
0.364668
0.375543
0.365201
0.34576
0.337457
0.327623
0.324316
0.311178
0.282399
0.310648
0.30294
0.269932
0.290529
0.314543
0.316734
0.36893
0.398474
0.396604
0.37579
0.398814
0.392931
0.389265
0.376268
0.366444
0.361277
0.344123
0.327324
0.281279
0.297404
0.320691
0.34319
0.309289
0.315792
0.346616
0.379397
0.369677
0.367311
0.343809
0.342296
0.358854
0.38709
0.365172
0.339908
0.323745
0.308171
0.308031
0.304469
0.274652
0.30184
0.293996
0.25879
0.284887
0.33416
0.401721
0.412318
0.398645
0.363335
0.385728
0.374946
0.3625
0.37944
0.345107
0.323535
0.342182
0.33387
0.30844
0.263853
0.306365
0.317351
0.335179
0.322042
0.349432
0.395959
0.390883
0.380986
0.355143
0.393006
0.321097
0.348941
0.373619
0.326795
0.312358
0.292374
0.299395
0.291004
0.311303
0.255725
0.28554
0.284176
0.28498
0.31487
0.414181
0.404278
0.380618
0.387106
0.369939
0.387504
0.34637
0.354476
0.348499
0.314251
0.309486
0.33541
0.307761
0.299455
0.286356
0.321825
0.338887
0.357209
0.363074
0.400411
0.381633
0.353258
0.338355
0.352294
0.364695
0.314404
0.316981
0.367399
0.29283
0.300207
0.283727
0.281094
0.295526
0.296109
0.301375
0.299789
0.328315
0.338797
0.409003
0.391856
0.391712
0.379936
0.367822
0.348569
0.350016
0.324769
0.330947
0.318877
0.286706
0.296449
0.300489
0.319769
0.329378
0.324612
0.34692
0.35749
0.36334
0.399981
0.376182
0.392202
0.342668
0.334964
0.341321
0.337418
0.316375
0.29207
0.342924
0.258961
0.286501
0.267975
0.281048
0.318331
0.313786
0.331056
0.345007
0.341036
0.389612
0.4033
0.393389
0.366315
0.375275
0.349944
0.343609
0.331278
0.295297
0.277776
0.307793
0.295771
0.308717
0.31796
0.320033
0.3261
0.347451
0.361878
0.37364
0.38554
0.403394
0.35482
0.337779
0.342906
0.35376
0.324128
0.312097
0.313824
0.269235
0.322206
0.253266
0.282125
0.289978
0.307642
0.33682
0.343842
0.331368
0.338874
0.389268
0.38224
0.38888
0.372248
0.357663
0.349019
0.326509
0.290689
0.348666
0.317351
0.280111
0.332603
0.322637
0.328055
0.332709
0.33766
0.34184
0.363435
0.380541
0.399185
0.373423
0.394638
0.354273
0.362966
0.318806
0.284243
0.304229
0.287455
0.303441
0.267965
0.316876
0.27205
0.305376
0.30607
0.317519
0.33054
0.331379
0.337283
0.397387
0.381896
0.36665
0.373418
0.353702
0.336738
0.327025
0.311819
0.311256
0.350635
0.304803
0.349565
0.341453
0.31645
0.323751
0.338083
0.351633
0.367506
0.381441
0.384824
0.374191
0.369563
0.386611
0.340018
0.304256
0.345977
0.275113
0.325582
0.292271
0.291071
0.29024
0.336296
0.297568
0.322286
0.332163
0.334244
0.342032
0.350776
0.403486
0.386975
0.377867
0.359045
0.355263
0.333841
0.323154
0.319655
0.303858
0.290874
0.367939
0.328704
0.332801
0.341356
0.333758
0.354639
0.359318
0.372453
0.387935
0.383851
0.373075
0.368356
0.362364
0.331295
0.394559
0.287206
0.321263
0.276536
0.308126
0.297777
0.293435
0.315729
0.343548
0.303871
0.336432
0.341539
0.362703
0.383877
0.408092
0.391792
0.383694
0.361101
0.344812
0.337456
0.319444
0.315522
0.329141
0.329402
0.322363
0.365414
0.355406
0.344195
0.363847
0.371668
0.369035
0.371768
0.3996
0.392273
0.381079
0.372018
0.364052
0.442369
0.316488
0.361682
0.289161
0.308496
0.299463
0.314587
0.318857
0.335292
0.343056
0.339913
0.358646
0.349615
0.369466
0.395465
0.412926
0.401591
0.387936
0.363051
0.334027
0.32508
0.320636
0.328875
0.330426
0.352729
0.363174
0.376086
0.377109
0.375594
0.37694
0.398123
0.379955
0.379733
0.386892
0.40253
0.391283
0.360554
0.317532
0.358759
0.4242
0.320501
0.352723
0.311751
0.316434
0.339041
0.362688
0.365686
0.368781
0.364795
0.397719
0.365199
0.36559
0.391531
0.427901
0.408888
0.369209
0.411285
0.363479
0.337121
0.337494
0.34036
0.362027
0.370906
0.382004
0.395639
0.394841
0.399693
0.391381
0.399879
0.393143
0.401631
0.404797
0.413403
0.38949
0.376494
0.372604
0.309146
0.358472
0.416651
0.345492
0.354169
0.351374
0.36856
0.391687
0.395851
0.394801
0.385925
0.393263
0.403921
0.378355
0.383926
0.434497
0.400294
0.391588
0.364633
0.367224
0.356241
0.351
0.344649
0.374184
0.389069
0.400734
0.411716
0.41836
0.419112
0.421084
0.401543
0.398626
0.414245
0.405733
0.400755
0.384894
0.372618
0.368607
0.350212
0.304804
0.387701
0.366349
0.377307
0.389632
0.403103
0.424699
0.418721
0.414647
0.425778
0.395693
0.386877
0.40573
0.397118
0.447356
0.381477
0.397672
0.38678
0.368144
0.37179
0.352815
0.366541
0.385557
0.406073
0.421268
0.431171
0.432896
0.437197
0.457018
0.424122
0.399671
0.410988
0.427921
0.402315
0.371804
0.369785
0.3701
0.323837
0.356032
0.31075
0.395323
0.402933
0.414958
0.42714
0.43701
0.433361
0.430267
0.441747
0.405733
0.380707
0.417143
0.41258
0.757379
0.692522
0.619748
0.560341
0.588811
0.649729
0.57015
0.419481
0.435269
0.494305
0.514467
0.45867
0.446528
0.432904
0.426094
0.406078
0.380941
0.403135
0.405142
0.522313
0.606676
0.60411
0.555815
0.595273
0.639167
0.597111
0.278376
0.414589
0.51629
0.483927
0.455879
0.451773
0.441091
0.431762
0.364298
0.380742
0.397487
0.375222
0.642995
0.68698
0.606444
0.605358
0.611192
0.523181
0.524767
0.541844
0.472431
0.51313
0.497792
0.472196
0.458566
0.45068
0.435181
0.411836
0.389955
0.392165
0.38441
0.451007
0.726417
0.61541
0.581139
0.601243
0.521936
0.517823
0.489446
0.506116
0.55572
0.491211
0.465607
0.458559
0.462867
0.423449
0.441104
0.390402
0.387701
0.391395
0.749539
0.671106
0.638256
0.604027
0.620335
0.559105
0.58138
0.529347
0.469851
0.573474
0.495369
0.46842
0.489792
0.479796
0.43869
0.417975
0.413643
0.408216
0.393532
0.469444
0.69947
0.607158
0.603279
0.593169
0.566653
0.547158
0.528812
0.530064
0.590713
0.565423
0.46595
0.479035
0.498779
0.4116
0.413845
0.399825
0.426481
0.364578
0.662027
0.666878
0.609068
0.602575
0.618109
0.604178
0.585982
0.545171
0.544086
0.490866
0.417125
0.480381
0.476382
0.474775
0.434663
0.434442
0.41312
0.415792
0.406642
0.591875
0.620037
0.620686
0.596522
0.611474
0.584228
0.567167
0.527524
0.509067
0.408273
0.394821
0.543733
0.496174
0.491927
0.412607
0.435928
0.437274
0.423624
0.351639
0.715692
0.605877
0.623044
0.611598
0.61478
0.59972
0.592914
0.57379
0.568733
0.523321
0.418328
0.493466
0.495445
0.466316
0.451475
0.441769
0.423413
0.399176
0.381772
0.548305
0.63225
0.649524
0.624303
0.614301
0.565105
0.553847
0.551778
0.527045
0.47204
0.468731
0.542784
0.505588
0.448173
0.444431
0.448896
0.450075
0.413102
0.371967
0.732913
0.738399
0.655856
0.648153
0.649727
0.584197
0.592108
0.551469
0.563234
0.498011
0.489845
0.509365
0.488648
0.480469
0.453338
0.481802
0.432508
0.395052
0.372436
0.568539
0.643302
0.638651
0.617136
0.599768
0.588211
0.573462
0.529299
0.513724
0.478166
0.51652
0.550498
0.527506
0.457099
0.462656
0.516027
0.443096
0.375411
0.376972
0.688882
0.70292
0.622697
0.653377
0.659017
0.609494
0.598955
0.594106
0.58916
0.518347
0.459038
0.497751
0.506108
0.484766
0.502703
0.46364
0.424783
0.383516
0.367563
0.581909
0.619174
0.63821
0.656803
0.630964
0.582642
0.573637
0.532958
0.529171
0.47728
0.517471
0.557308
0.539559
0.450611
0.502479
0.487251
0.386753
0.396015
0.361068
0.744584
0.671185
0.674614
0.675225
0.747137
0.613411
0.658791
0.607946
0.605936
0.480998
0.497319
0.570368
0.506726
0.488313
0.490776
0.454775
0.404327
0.380982
0.393996
0.576945
0.637158
0.667933
0.649162
0.629945
0.615827
0.61796
0.566887
0.516459
0.512266
0.499288
0.579955
0.490947
0.465273
0.509496
0.44367
0.385016
0.370787
0.391136
0.801825
0.716097
0.732023
0.704835
0.709299
0.690232
0.589773
0.610288
0.608079
0.550039
0.571054
0.561192
0.485848
0.492138
0.477895
0.447398
0.410538
0.415807
0.425159
0.592702
0.656341
0.685807
0.670652
0.638472
0.597427
0.588968
0.580815
0.553564
0.522156
0.520539
0.533839
0.497882
0.466514
0.492441
0.464997
0.418779
0.393999
0.427123
0.778592
0.815154
0.765111
0.717917
0.714169
0.719252
0.697151
0.62653
0.586658
0.584591
0.591921
0.58583
0.490483
0.525768
0.489188
0.463949
0.425632
0.45213
0.431529
0.622065
0.670503
0.698874
0.700343
0.680836
0.650448
0.636534
0.588432
0.565034
0.540135
0.545531
0.516872
0.558617
0.523508
0.534177
0.434853
0.435356
0.448583
0.436147
0.810118
0.82248
0.72482
0.809764
0.836486
0.721291
0.707693
0.699562
0.626956
0.605022
0.561613
0.592508
0.500152
0.514681
0.469123
0.439369
0.460525
0.44138
0.412877
0.641988
0.708891
0.707116
0.735084
0.668074
0.637921
0.671191
0.614884
0.591803
0.553946
0.528072
0.553027
0.51144
0.509926
0.481175
0.423149
0.449369
0.463351
0.428751
0.911159
0.877017
0.918977
0.855907
0.801156
0.731559
0.731905
0.652898
0.672421
0.580827
0.592587
0.623557
0.537243
0.490151
0.454949
0.459046
0.461902
0.438143
0.407408
0.645897
0.843804
0.784743
0.766225
0.731737
0.706807
0.680534
0.6152
0.624326
0.547449
0.547176
0.609536
0.537994
0.491839
0.481687
0.426625
0.449161
0.445072
0.400041
1.06011
0.954447
0.977006
0.914134
0.857489
0.830746
0.767452
0.780774
0.768877
0.631243
0.609813
0.603837
0.547957
0.488576
0.466142
0.481324
0.458163
0.443565
0.41995
0.83679
0.807264
0.845352
0.80272
0.796944
0.699304
0.68743
0.710521
0.635532
0.579243
0.566091
0.592456
0.519686
0.47036
0.439638
0.441282
0.439011
0.443073
0.434571
0.983921
1.15685
1.11025
0.936036
1.09081
1.0253
0.794655
0.789503
0.719423
0.6667
0.677732
0.620058
0.550561
0.517833
0.48839
0.456901
0.468696
0.456889
0.428888
0.904134
0.876304
0.913842
0.879114
0.857823
0.775567
0.782769
0.705248
0.655468
0.600382
0.626255
0.550495
0.606949
0.468431
0.451665
0.458113
0.425531
0.436383
0.421457
1.08721
1.09751
1.1686
0.948918
0.915651
0.872047
0.859061
0.781248
0.724232
0.726378
0.676273
0.639329
0.518385
0.522716
0.513377
0.472639
0.483948
0.468073
0.435324
0.907563
0.958209
0.947192
0.910612
0.952406
0.846328
0.785794
0.734015
0.69838
0.62288
0.63411
0.580135
0.5986
0.548967
0.460468
0.481203
0.464422
0.427219
0.411485
1.02745
1.09187
1.21972
1.20102
1.07372
0.902486
0.842201
0.774263
0.770243
0.691303
0.679145
0.654896
0.556484
0.487053
0.529399
0.487107
0.496832
0.476398
0.439858
0.93763
0.93094
0.987779
1.02928
0.918127
0.867806
0.872742
0.748211
0.767219
0.656219
0.618572
0.648656
0.560045
0.562339
0.512592
0.467212
0.496643
0.434022
0.411831
1.04524
1.13484
1.04573
1.09044
1.16616
0.966938
0.897824
0.826549
0.821684
0.740101
0.706337
0.672126
0.594607
0.522966
0.48529
0.501205
0.482103
0.480636
0.450346
0.944923
0.972453
1.03378
1.02595
1.01026
0.907166
0.859213
0.82914
0.771239
0.652852
0.638283
0.682815
0.594541
0.548488
0.553501
0.447053
0.514726
0.504177
0.419463
1.25883
1.03062
1.11391
0.995464
0.961149
0.946124
1.00607
0.8784
0.840789
0.735628
0.726963
0.718483
0.558357
0.602737
0.50138
0.501718
0.494478
0.478799
0.46616
0.979756
0.947759
0.882405
1.04178
1.04393
0.910246
0.906182
0.855923
0.815559
0.704789
0.648482
0.667029
0.6434
0.531296
0.565015
0.485922
0.466232
0.532503
0.455528
1.01906
0.949184
1.08942
1.0745
1.11698
0.868863
0.899086
1.00406
0.928571
0.844554
0.733022
0.663124
0.601344
0.547137
0.557133
0.482157
0.499678
0.479313
0.464754
0.957876
0.918511
1.01082
0.939899
0.950936
0.848967
0.83169
0.861301
0.817088
0.94283
0.698259
0.765177
0.610461
0.599472
0.543219
0.53923
0.453824
0.489303
0.503388
0.646947
0.561531
0.608278
0.627226
0.632108
0.532844
0.495892
0.492912
0.470338
0.441847
0.425416
0.436851
0.420907
0.449348
0.453258
0.422277
0.384559
0.396411
0.409015
0.632877
0.856029
0.721318
0.655099
0.5535
0.510215
0.461148
0.428661
0.417359
0.430383
0.440333
0.412468
0.423731
0.431015
0.41678
0.391044
0.378537
0.377576
0.386495
0.641292
0.891773
0.673989
0.568342
0.54042
0.475576
0.401847
0.379188
0.375696
0.374712
0.379904
0.400717
0.39303
0.408352
0.39951
0.378265
0.357166
0.420324
0.390908
0.774624
0.646792
0.641924
0.614338
0.478996
0.332149
0.390642
0.365301
0.351728
0.378008
0.386623
0.390064
0.389826
0.416222
0.3834
0.360495
0.38342
0.415358
0.394472
0.817874
0.599779
0.597955
0.561035
0.435239
0.309464
0.362893
0.358688
0.340335
0.351357
0.347108
0.356491
0.371437
0.376747
0.369996
0.360635
0.395331
0.386492
0.39646
0.845563
0.594996
0.509545
0.373772
0.314118
0.320069
0.327444
0.302044
0.318233
0.364756
0.377488
0.380946
0.371405
0.373034
0.370635
0.379623
0.372497
0.400504
0.39803
0.747667
0.685348
0.54804
0.47809
0.48232
0.340224
0.318291
0.299154
0.335017
0.358763
0.338203
0.353843
0.350801
0.411766
0.415827
0.39529
0.39283
0.40708
0.401804
0.749523
0.64918
0.562077
0.504513
0.414066
0.276377
0.305889
0.274454
0.311158
0.370607
0.358646
0.349824
0.395655
0.402613
0.421816
0.42376
0.399566
0.401085
0.390327
0.799616
0.6421
0.575915
0.493019
0.427168
0.280885
0.316098
0.316774
0.361939
0.393556
0.362382
0.403797
0.453873
0.437435
0.454529
0.438293
0.417584
0.391864
0.39771
0.818963
0.678051
0.626272
0.523355
0.450514
0.379639
0.339426
0.327658
0.352788
0.391748
0.405142
0.419426
0.450999
0.431346
0.432372
0.444147
0.434533
0.384615
0.381607
0.747999
0.653053
0.65651
0.564016
0.510716
0.488942
0.409899
0.365615
0.40478
0.444925
0.435494
0.43124
0.427061
0.435419
0.434012
0.427088
0.406563
0.385502
0.385815
0.769881
0.723364
0.692687
0.678213
0.520816
0.470285
0.474849
0.403067
0.405605
0.36044
0.436698
0.433115
0.435222
0.431454
0.421124
0.424909
0.40226
0.364309
0.368137
0.797417
0.717412
0.751192
0.779749
0.490414
0.623121
0.569565
0.534163
0.450522
0.368474
0.434156
0.452411
0.412837
0.413134
0.383692
0.388409
0.37738
0.35643
0.344878
0.854119
0.746568
0.749154
0.877496
0.783987
0.622514
0.735151
0.528779
0.425993
0.447752
0.432967
0.400248
0.389755
0.359278
0.351653
0.354384
0.352605
0.345246
0.344265
0.717323
0.746205
0.788001
0.943848
0.831827
0.701436
0.713771
0.537508
0.414593
0.440358
0.43111
0.391866
0.356132
0.351655
0.336728
0.32667
0.346415
0.337472
0.325664
0.913058
0.787418
0.787231
0.766801
0.834485
0.767696
0.650297
0.602534
0.499304
0.456927
0.406926
0.405019
0.363897
0.326864
0.338431
0.313059
0.331001
0.331633
0.325887
0.800755
0.710458
0.696545
0.723844
0.814523
0.734793
0.698339
0.633043
0.512995
0.499011
0.416585
0.394687
0.388636
0.339358
0.310423
0.316988
0.301201
0.329583
0.320053
0.858643
0.739289
0.700091
0.732038
0.754295
0.67456
0.747998
0.707969
0.541167
0.508867
0.472605
0.41826
0.39969
0.368818
0.31557
0.31082
0.298123
0.295299
0.316656
0.790326
0.758975
0.682629
0.674369
0.70448
0.60409
0.733578
0.71856
0.580568
0.52843
0.51198
0.456839
0.404034
0.381525
0.3399
0.298884
0.30303
0.280938
0.299061
0.543151
0.6043
0.600119
0.610625
0.456176
0.458105
0.580635
0.532262
0.49365
0.462317
0.443411
0.41752
0.41314
0.425454
0.4408
0.398763
0.369611
0.380639
0.366778
0.461168
0.699365
0.636008
0.530552
0.516896
0.486567
0.512953
0.466924
0.419877
0.410572
0.411079
0.390494
0.402773
0.420723
0.439778
0.364799
0.374221
0.365321
0.351918
0.589188
0.620776
0.570701
0.532962
0.507265
0.423199
0.465758
0.381104
0.373173
0.38078
0.386025
0.385815
0.370349
0.399175
0.404345
0.352916
0.351891
0.38062
0.379945
0.60665
0.611309
0.559444
0.526722
0.417203
0.389223
0.445728
0.344558
0.338051
0.362987
0.364063
0.364234
0.364148
0.397474
0.419619
0.332663
0.365478
0.379772
0.380461
0.604924
0.612843
0.537688
0.508855
0.396856
0.359868
0.421632
0.324442
0.314508
0.38566
0.341538
0.341681
0.360817
0.374021
0.378808
0.35403
0.367982
0.36717
0.37727
0.584767
0.590662
0.536332
0.465474
0.379464
0.365928
0.366263
0.26949
0.301703
0.352696
0.340362
0.325369
0.347042
0.351188
0.367107
0.377605
0.358275
0.369221
0.396338
0.594388
0.602761
0.480891
0.456307
0.458315
0.363924
0.321888
0.287355
0.300258
0.323121
0.317939
0.321344
0.342278
0.373777
0.373004
0.369711
0.365995
0.38043
0.387924
0.575718
0.566483
0.483344
0.446998
0.326677
0.291586
0.364982
0.269979
0.275032
0.315487
0.316194
0.332163
0.354861
0.397397
0.421358
0.383543
0.38298
0.393302
0.380914
0.594628
0.579346
0.521984
0.45524
0.354727
0.310448
0.378741
0.307884
0.294476
0.347123
0.340732
0.368657
0.38471
0.400108
0.427682
0.423083
0.388023
0.381535
0.372448
0.625123
0.594839
0.544652
0.503016
0.404973
0.380611
0.267736
0.275892
0.321832
0.361809
0.371317
0.394437
0.409356
0.424059
0.41936
0.485535
0.397916
0.386558
0.367416
0.670926
0.647547
0.629199
0.541119
0.431227
0.428663
0.346099
0.355303
0.449554
0.422259
0.396125
0.411324
0.407492
0.445932
0.413187
0.444719
0.42156
0.353972
0.355464
0.6886
0.712171
0.6506
0.620568
0.533665
0.507918
0.469004
0.457295
0.353649
0.335653
0.408904
0.440976
0.462585
0.454688
0.385249
0.40317
0.381508
0.370571
0.348115
0.700051
0.71302
0.695894
0.795217
0.556678
0.559964
0.50951
0.496258
0.457453
0.42668
0.419279
0.43452
0.435202
0.394517
0.398238
0.396961
0.358054
0.366899
0.341714
0.691747
0.674043
0.717601
0.7367
0.72011
0.612974
0.571702
0.512819
0.492311
0.473154
0.453917
0.387089
0.393739
0.352705
0.351531
0.34723
0.351388
0.330916
0.330018
0.698663
0.66917
0.710496
0.75001
0.771177
0.654613
0.602562
0.509346
0.446833
0.436336
0.413088
0.400532
0.349217
0.332515
0.339984
0.321094
0.337671
0.322481
0.319214
0.663561
0.690094
0.705593
0.707814
0.763822
0.666758
0.612651
0.583663
0.545026
0.455104
0.385869
0.379947
0.359114
0.33074
0.335135
0.308828
0.318531
0.318524
0.308113
0.638325
0.6868
0.701055
0.681431
0.688044
0.669216
0.635778
0.626689
0.529037
0.5149
0.435581
0.369293
0.371419
0.317111
0.307612
0.303829
0.303241
0.311003
0.311939
0.645398
0.652099
0.664591
0.678767
0.700573
0.594068
0.602337
0.711058
0.583008
0.492918
0.474897
0.417656
0.37185
0.348672
0.3063
0.306749
0.290669
0.302066
0.308555
0.630826
0.639164
0.651154
0.679035
0.680715
0.583324
0.586173
0.712022
0.674004
0.541607
0.50933
0.472694
0.383613
0.362295
0.331698
0.29195
0.289239
0.286403
0.296884
0.726121
0.727956
0.692395
0.653302
0.724192
0.66283
0.599418
0.64495
0.590876
0.539933
0.524439
0.464383
0.41005
0.375622
0.338954
0.270685
0.293046
0.272672
0.294877
0.62785
0.61799
0.633045
0.639446
0.651651
0.576265
0.588021
0.692426
0.667356
0.543487
0.52068
0.475504
0.38004
0.354855
0.326768
0.288488
0.298842
0.282148
0.293195
0.702051
0.729631
0.664329
0.685238
0.733062
0.676424
0.68812
0.729597
0.568671
0.53911
0.505833
0.444734
0.409486
0.361113
0.302892
0.304395
0.286784
0.278819
0.300566
0.613601
0.614786
0.646227
0.643722
0.65991
0.550624
0.58375
0.703778
0.617853
0.53133
0.494003
0.437391
0.386871
0.338336
0.288636
0.298405
0.269988
0.282058
0.293729
0.724182
0.713746
0.69593
0.779187
0.712468
0.703065
0.734623
0.720972
0.550664
0.539633
0.478729
0.434387
0.409423
0.351247
0.318468
0.315205
0.287933
0.31517
0.3055
0.609574
0.628384
0.67693
0.671432
0.662533
0.585011
0.60319
0.684576
0.56054
0.548991
0.490324
0.431875
0.394777
0.331395
0.311291
0.306259
0.290285
0.299003
0.297455
0.886071
0.747197
0.726288
0.757345
0.773546
0.778666
0.809628
0.627255
0.550069
0.485972
0.453656
0.458078
0.392525
0.362617
0.355172
0.320449
0.324832
0.324365
0.312833
0.649315
0.677676
0.664433
0.687562
0.677966
0.634641
0.638616
0.600402
0.551216
0.495134
0.432925
0.438427
0.39484
0.36873
0.353839
0.312318
0.313216
0.308566
0.302377
0.741752
0.730828
0.772884
0.832957
0.851517
0.789381
0.718194
0.601083
0.509335
0.457885
0.460532
0.421724
0.393936
0.382523
0.36304
0.345488
0.357517
0.340794
0.32392
0.661676
0.683379
0.71843
0.744577
0.735288
0.63713
0.622612
0.624941
0.492762
0.43562
0.409778
0.431221
0.369416
0.37374
0.347663
0.355866
0.347306
0.327868
0.313909
0.847589
0.787763
0.836498
0.876293
0.820408
0.730342
0.662818
0.505169
0.437105
0.455175
0.432013
0.404604
0.398525
0.379084
0.371777
0.395585
0.377385
0.355571
0.340119
0.670968
0.687366
0.734391
0.749231
0.7916
0.684853
0.600231
0.480557
0.435769
0.471448
0.43982
0.382146
0.39513
0.35896
0.376205
0.379089
0.367065
0.352045
0.321477
0.674695
0.78451
0.903339
0.887862
0.846187
0.663833
0.62974
0.505732
0.402109
0.44167
0.426711
0.430279
0.394657
0.394154
0.415156
0.407523
0.387349
0.372838
0.362789
0.658433
0.686213
0.772089
0.73564
0.706096
0.619171
0.579812
0.478174
0.445817
0.492273
0.410964
0.416105
0.415516
0.372352
0.427713
0.374611
0.363633
0.377285
0.350913
0.790249
0.768111
0.809275
0.795296
0.71762
0.613914
0.554336
0.545812
0.419988
0.361511
0.441196
0.426257
0.412317
0.412147
0.414995
0.416196
0.3936
0.390858
0.374684
0.644275
0.764767
0.711519
0.758208
0.672376
0.608394
0.459344
0.503061
0.360895
0.347464
0.396407
0.420362
0.395004
0.416243
0.407312
0.383222
0.401054
0.394513
0.3501
0.693341
0.617105
0.585103
0.609672
0.62498
0.563043
0.560335
0.469225
0.450984
0.402852
0.491843
0.424995
0.426011
0.419263
0.420361
0.416638
0.404138
0.400955
0.380832
0.711559
0.647483
0.614617
0.609355
0.572253
0.534142
0.51581
0.516941
0.414105
0.414764
0.438952
0.415
0.44653
0.455637
0.377782
0.400476
0.39881
0.389635
0.352242
0.802524
0.62301
0.547284
0.432554
0.56945
0.544562
0.541169
0.530967
0.492178
0.414762
0.455694
0.435197
0.430639
0.419371
0.429625
0.441365
0.422386
0.413206
0.37876
0.581916
0.573327
0.604203
0.512132
0.520827
0.505339
0.429686
0.48889
0.42645
0.401483
0.415762
0.433991
0.461881
0.40857
0.409947
0.426073
0.444995
0.37496
0.353129
0.701682
0.581023
0.491064
0.459571
0.493553
0.396484
0.473206
0.473226
0.419791
0.345522
0.438568
0.456057
0.425882
0.423545
0.430573
0.444939
0.423633
0.408639
0.39463
0.536148
0.542818
0.486459
0.447307
0.426038
0.438409
0.405887
0.418318
0.393316
0.412029
0.422617
0.462339
0.402263
0.394726
0.407536
0.433451
0.408514
0.402454
0.344894
0.671303
0.548962
0.490122
0.450654
0.433252
0.364924
0.355829
0.309807
0.425279
0.413182
0.470023
0.430744
0.443802
0.40879
0.403953
0.459254
0.430471
0.404478
0.409803
0.530749