/*--------------------------------*- C++ -*----------------------------------*\
| =========                 |                                                 |
| \\      /  F ield         | foam-extend: Open Source CFD                    |
|  \\    /   O peration     | Version:     3.1                                |
|   \\  /    A nd           | Web:         http://www.extend-project.de       |
|    \\/     M anipulation  |                                                 |
\*---------------------------------------------------------------------------*/
FoamFile
{
    version     2.0;
    format      ascii;
    class       volScalarField::DimensionedInternalField;
    location    "345600";
    object      V0;
}
// * * * * * * * * * * * * * * * * * * * * * * * * * * * * * * * * * * * * * //

dimensions      [0 3 0 0 0 0 0];

value           nonuniform List<scalar> 
23248
(
3.05895e-13
3.0588e-13
3.05989e-13
3.06299e-13
3.06866e-13
3.08825e-13
3.13738e-13
3.23265e-13
3.52203e-13
3.24528e-13
3.24589e-13
3.24848e-13
3.25398e-13
3.26785e-13
3.30036e-13
3.38158e-13
3.60045e-13
4.29573e-13
2.89387e-13
2.89369e-13
2.89475e-13
2.89782e-13
2.90379e-13
2.92188e-13
2.9668e-13
3.04612e-13
3.34651e-13
3.16518e-13
3.16534e-13
3.16742e-13
3.17233e-13
3.18539e-13
3.21607e-13
3.29524e-13
3.51175e-13
4.24231e-13
2.88802e-13
2.88778e-13
2.88926e-13
2.8915e-13
2.89781e-13
2.915e-13
2.96001e-13
3.04563e-13
3.32518e-13
3.18804e-13
3.18856e-13
3.19099e-13
3.19628e-13
3.20891e-13
3.23876e-13
3.31776e-13
3.5353e-13
4.25874e-13
3.07965e-13
3.07996e-13
3.08106e-13
3.08462e-13
3.09053e-13
3.10907e-13
3.15456e-13
3.2254e-13
3.45918e-13
3.35273e-13
3.35348e-13
3.35573e-13
3.36064e-13
3.37416e-13
3.40553e-13
3.48744e-13
3.70746e-13
4.44924e-13
3.526e-13
3.52575e-13
3.52749e-13
3.53021e-13
3.53763e-13
3.5593e-13
3.61342e-13
3.72061e-13
3.90051e-13
3.46074e-13
3.46086e-13
3.4636e-13
3.46964e-13
3.48422e-13
3.51816e-13
3.6041e-13
3.82844e-13
4.56224e-13
2.76962e-13
2.76997e-13
2.77084e-13
2.7738e-13
2.7806e-13
2.79791e-13
2.84017e-13
2.91225e-13
3.2189e-13
3.20444e-13
3.20475e-13
3.20729e-13
3.21276e-13
3.22595e-13
3.25714e-13
3.33772e-13
3.55582e-13
4.28e-13
3.00794e-13
3.00749e-13
3.00864e-13
3.01155e-13
3.02162e-13
3.03307e-13
3.0821e-13
3.19695e-13
3.50011e-13
3.38238e-13
3.38241e-13
3.38531e-13
3.39134e-13
3.4065e-13
3.4415e-13
3.52989e-13
3.76632e-13
4.54991e-13
3.47322e-13
3.47431e-13
3.47615e-13
3.47996e-13
3.48983e-13
3.51529e-13
3.57327e-13
3.6593e-13
3.86753e-13
3.57377e-13
3.57467e-13
3.57767e-13
3.58434e-13
3.60085e-13
3.63978e-13
3.73544e-13
3.98359e-13
4.75992e-13
3.34522e-13
3.34452e-13
3.3407e-13
3.34459e-13
3.35426e-13
3.38158e-13
3.44827e-13
3.60419e-13
3.84202e-13
3.65632e-13
3.65656e-13
3.65978e-13
3.66701e-13
3.68434e-13
3.72454e-13
3.82889e-13
4.10956e-13
4.98262e-13
3.7145e-13
3.71557e-13
3.71436e-13
3.72037e-13
3.73173e-13
3.74995e-13
3.72327e-13
3.83958e-13
4.09338e-13
3.91986e-13
3.92139e-13
3.92531e-13
3.93374e-13
3.95294e-13
3.99571e-13
4.10467e-13
4.41293e-13
5.34119e-13
3.55624e-13
3.5562e-13
3.56014e-13
3.56579e-13
3.57804e-13
3.61588e-13
3.30905e-12
3.88203e-13
4.13133e-13
4.07357e-13
4.07483e-13
4.07874e-13
4.08932e-13
4.11405e-13
4.17632e-13
4.29699e-13
4.6654e-13
5.65377e-13
4.06827e-13
4.06869e-13
4.07145e-13
4.07833e-13
4.09449e-13
4.13529e-13
4.04573e-13
4.27431e-13
4.44299e-13
4.46177e-13
4.46346e-13
4.46853e-13
4.48109e-13
4.50987e-13
4.57431e-13
4.72824e-13
5.13863e-13
6.36717e-13
4.41227e-13
4.41171e-13
4.4154e-13
4.42367e-13
4.44314e-13
4.48278e-13
4.59896e-13
4.79596e-13
4.91513e-13
4.87491e-13
4.87663e-13
4.88349e-13
4.89778e-13
4.93031e-13
5.00389e-13
5.18209e-13
5.66381e-13
7.12067e-13
4.4754e-13
4.48011e-13
4.4841e-13
4.4943e-13
4.51645e-13
4.5678e-13
4.678e-13
4.85963e-13
5.17184e-13
5.17079e-13
5.17295e-13
5.18108e-13
5.19841e-13
5.23878e-13
5.33077e-13
5.5516e-13
6.15168e-13
7.99689e-13
4.35987e-13
4.3574e-13
4.36213e-13
4.37344e-13
4.39825e-13
4.45333e-13
4.56573e-13
4.73522e-13
5.15756e-13
5.85383e-13
5.85526e-13
5.86446e-13
5.88718e-13
5.93811e-13
6.05452e-13
6.34103e-13
7.13195e-13
9.41811e-13
5.89766e-13
5.89632e-13
5.90353e-13
5.9202e-13
5.95765e-13
6.03839e-13
6.18677e-13
6.34247e-13
6.88134e-13
7.25668e-13
7.25951e-13
7.27365e-13
7.30443e-13
7.3752e-13
7.53751e-13
7.93509e-13
9.02086e-13
1.17938e-12
6.93828e-13
6.9398e-13
6.94974e-13
6.97082e-13
7.0194e-13
7.11728e-13
7.28945e-13
7.41848e-13
7.8782e-13
7.92781e-13
7.93251e-13
7.94834e-13
7.98572e-13
8.07248e-13
8.26742e-13
8.74853e-13
1.00313e-12
1.30058e-12
5.89963e-13
5.89838e-13
5.90772e-13
5.92782e-13
5.97266e-13
6.06538e-13
6.23455e-13
6.43711e-13
7.19845e-13
7.41218e-13
7.41673e-13
7.43226e-13
7.47107e-13
7.55561e-13
7.7478e-13
8.22611e-13
9.5418e-13
1.30769e-12
7.24978e-13
7.25204e-13
7.2625e-13
7.28694e-13
7.3388e-13
7.44692e-13
7.64408e-13
7.87531e-13
8.08057e-13
7.35131e-13
7.35604e-13
7.37233e-13
7.40996e-13
7.49503e-13
7.68542e-13
8.1413e-13
9.35586e-13
1.25126e-12
3.05007e-13
3.0505e-13
3.05141e-13
3.0552e-13
3.06966e-13
3.085e-13
3.13011e-13
3.24013e-13
3.53839e-13
2.7022e-13
2.70067e-13
2.68941e-13
2.68644e-13
2.27444e-12
2.73297e-13
2.77286e-13
2.45098e-12
3.44232e-12
2.42246e-12
2.42055e-12
2.95303e-13
2.96314e-13
2.92544e-13
2.45756e-12
2.54511e-12
3.05769e-13
3.35396e-13
2.97001e-13
2.96792e-13
2.9773e-13
2.9855e-13
2.99291e-13
3.00564e-13
3.05637e-13
3.16795e-13
3.59207e-13
3.0254e-13
3.0258e-13
3.0261e-13
3.02865e-13
3.03806e-13
3.0638e-13
3.1232e-13
3.23648e-13
3.61331e-13
2.94571e-13
2.94535e-13
2.94416e-13
2.94979e-13
2.96243e-13
2.98765e-13
3.04915e-13
3.17671e-13
3.42475e-13
2.61824e-13
2.61939e-13
2.62381e-13
2.6271e-13
2.6337e-13
2.65699e-13
2.71294e-13
2.82204e-13
3.35701e-13
3.21263e-13
3.21325e-13
3.21484e-13
3.22034e-13
3.2318e-13
3.26091e-13
3.32719e-13
3.44095e-13
3.82363e-13
2.64503e-13
2.64543e-13
2.64673e-13
2.65204e-13
2.66069e-13
2.68385e-13
2.73836e-13
2.83979e-13
3.18252e-13
3.17916e-13
3.17957e-13
3.18139e-13
3.18715e-13
3.20358e-13
3.23238e-13
3.30423e-13
3.42906e-13
3.76881e-13
3.19391e-13
3.19369e-13
3.19567e-13
3.20135e-13
3.21235e-13
3.24282e-13
3.31448e-13
3.43471e-13
3.56581e-13
3.46633e-13
3.46788e-13
3.47009e-13
3.47676e-13
3.49229e-13
3.52335e-13
3.6012e-13
3.72798e-13
4.08072e-13
3.75814e-13
3.75533e-13
3.75862e-13
3.76592e-13
3.78394e-13
3.82731e-13
3.90516e-13
4.03166e-13
4.29215e-13
4.61832e-13
4.62178e-13
4.62605e-13
4.63515e-13
4.65642e-13
4.70327e-13
4.80668e-13
4.94937e-13
5.09346e-13
4.78523e-13
4.78611e-13
4.79099e-13
4.80135e-13
4.82499e-13
4.87697e-13
4.98186e-13
5.15971e-13
5.4143e-13
4.62046e-13
4.62163e-13
4.62611e-13
4.63789e-13
4.66253e-13
4.71627e-13
4.82713e-13
5.02399e-13
5.30076e-13
4.27613e-13
4.27677e-13
4.28214e-13
4.29345e-13
4.31858e-13
4.36995e-13
4.47651e-13
4.66881e-13
5.00017e-13
4.84953e-13
4.84981e-13
4.85555e-13
4.86885e-13
4.89623e-13
4.95539e-13
5.07558e-13
5.28308e-13
5.60714e-13
4.36405e-13
4.36476e-13
4.37039e-13
4.38264e-13
4.40862e-13
4.46198e-13
4.56976e-13
4.75134e-13
5.12073e-13
3.19928e-13
3.19981e-13
3.20239e-13
3.20898e-13
3.22217e-13
3.25414e-13
3.33636e-13
3.55779e-13
4.2635e-13
2.95081e-13
2.95111e-13
2.95376e-13
2.96051e-13
2.96967e-13
3.00575e-13
3.08904e-13
3.27659e-13
3.9475e-13
3.16389e-13
3.16534e-13
3.17287e-13
3.18245e-13
3.19867e-13
3.22796e-13
3.31127e-13
3.5614e-13
4.30882e-13
3.09888e-13
3.10082e-13
3.1005e-13
3.10253e-13
3.11501e-13
3.15207e-13
3.24217e-13
3.5002e-13
4.26706e-13
3.13928e-13
3.1398e-13
3.14282e-13
3.14983e-13
3.1653e-13
3.2023e-13
3.2973e-13
3.56598e-13
4.30754e-13
3.02544e-13
3.02642e-13
3.02944e-13
3.03763e-13
3.0541e-13
3.09212e-13
3.18753e-13
3.45756e-13
4.26026e-13
2.99024e-13
2.99063e-13
2.99377e-13
3.00051e-13
3.01668e-13
3.05454e-13
3.14991e-13
3.41822e-13
4.18296e-13
3.05875e-13
3.05908e-13
3.06258e-13
3.06975e-13
3.08678e-13
3.12704e-13
3.228e-13
3.50805e-13
4.21683e-13
3.17862e-13
3.17943e-13
3.18226e-13
3.18945e-13
3.20715e-13
3.24943e-13
3.35503e-13
3.63836e-13
4.33557e-13
3.14561e-13
3.14607e-13
3.14932e-13
3.15762e-13
3.17713e-13
3.22083e-13
3.32984e-13
3.63707e-13
4.47909e-13
3.58594e-13
3.58686e-13
3.59093e-13
3.6011e-13
3.62451e-13
3.67916e-13
3.81257e-13
4.15616e-13
5.04063e-13
4.0047e-13
4.00545e-13
4.01035e-13
4.02141e-13
4.04827e-13
4.10941e-13
4.26151e-13
4.67612e-13
5.75265e-13
4.43771e-13
4.43885e-13
4.44459e-13
4.458e-13
4.48909e-13
4.55978e-13
4.72881e-13
5.17673e-13
6.24053e-13
4.90133e-13
4.90307e-13
4.91001e-13
4.92616e-13
4.96113e-13
5.04173e-13
5.22969e-13
5.70708e-13
6.83203e-13
5.06507e-13
5.06724e-13
5.07472e-13
5.09237e-13
5.13083e-13
5.21644e-13
5.41244e-13
5.90487e-13
7.10295e-13
4.90175e-13
4.90375e-13
4.91175e-13
4.93065e-13
4.9715e-13
5.06089e-13
5.26592e-13
5.76993e-13
7.03456e-13
4.70675e-13
4.70892e-13
4.71673e-13
4.7354e-13
4.77682e-13
4.86576e-13
5.06668e-13
5.56406e-13
6.80101e-13
5.05168e-13
5.054e-13
5.06335e-13
5.0848e-13
5.12898e-13
5.22729e-13
5.44608e-13
5.97022e-13
7.18281e-13
4.70566e-13
4.70844e-13
4.71618e-13
4.73657e-13
4.77935e-13
4.87007e-13
5.07247e-13
5.56039e-13
6.68861e-13
6.02841e-13
5.88297e-13
5.65314e-13
5.72437e-13
5.85316e-13
5.75119e-13
5.63232e-13
5.42275e-13
5.40216e-13
5.40339e-13
5.34652e-13
5.28768e-13
5.18181e-13
5.11839e-13
4.9921e-13
5.04631e-13
5.12496e-13
5.11731e-13
5.08164e-13
6.12172e-13
5.90603e-13
5.59167e-13
5.61444e-13
5.55727e-13
5.46299e-13
5.32341e-13
5.18463e-13
5.14324e-13
5.14813e-13
5.12255e-13
5.02881e-13
5.06489e-13
5.19459e-13
5.18261e-13
5.11372e-13
4.99295e-13
4.89463e-13
4.92624e-13
5.77523e-13
5.89959e-13
5.68518e-13
5.46551e-13
5.51542e-13
5.45039e-13
5.2286e-13
5.11466e-13
5.07153e-13
5.07843e-13
5.06631e-13
5.05791e-13
5.1575e-13
5.23858e-13
5.17529e-13
5.03803e-13
4.93917e-13
5.0373e-13
5.1145e-13
5.91673e-13
5.72921e-13
5.3972e-13
5.33102e-13
5.41744e-13
5.31526e-13
5.0757e-13
4.98123e-13
4.99744e-13
5.0973e-13
5.04348e-13
4.86516e-13
4.89339e-13
5.08129e-13
5.18625e-13
5.10308e-13
4.97751e-13
4.92167e-13
4.88269e-13
5.60635e-13
5.6145e-13
5.50781e-13
5.35087e-13
5.32455e-13
5.20335e-13
5.02736e-13
4.99928e-13
4.96171e-13
4.92248e-13
4.87955e-13
4.91792e-13
5.12119e-13
5.28818e-13
5.21495e-13
5.02357e-13
4.90218e-13
4.90344e-13
5.02329e-13
5.64157e-13
5.52879e-13
5.32565e-13
5.14149e-13
5.24113e-13
5.15174e-13
5.00208e-13
5.12042e-13
5.0651e-13
5.00304e-13
4.967e-13
4.77388e-13
4.78451e-13
4.97883e-13
5.06911e-13
5.01477e-13
4.9251e-13
4.89795e-13
4.88084e-13
5.4005e-13
5.27844e-13
5.10636e-13
5.16426e-13
5.27126e-13
5.08193e-13
4.92834e-13
5.13037e-13
5.16498e-13
4.92804e-13
4.86132e-13
4.93904e-13
5.07205e-13
5.24334e-13
5.17314e-13
4.97193e-13
4.86625e-13
4.8187e-13
4.91423e-13
5.35887e-13
5.23617e-13
5.12418e-13
5.03953e-13
5.10294e-13
4.99325e-13
5.00693e-13
5.40891e-13
5.33453e-13
4.99679e-13
4.88768e-13
4.81839e-13
4.88578e-13
4.99974e-13
5.01283e-13
4.95512e-13
4.88148e-13
4.85735e-13
4.90891e-13
5.23187e-13
5.20131e-13
4.96989e-13
4.86294e-13
5.10573e-13
5.21699e-13
5.1065e-13
5.4326e-13
5.51245e-13
5.07612e-13
4.95632e-13
4.90389e-13
4.85855e-13
5.00553e-13
5.15583e-13
5.05578e-13
4.85744e-13
4.82032e-13
4.88681e-13
5.13759e-13
5.02594e-13
4.93998e-13
5.02368e-13
5.24934e-13
5.24426e-13
5.23151e-13
5.49963e-13
5.48374e-13
5.1317e-13
4.9763e-13
4.95993e-13
4.9e-13
4.91625e-13
4.96295e-13
4.93249e-13
4.8979e-13
4.85845e-13
4.90516e-13
5.08791e-13
5.11218e-13
5.03408e-13
4.84798e-13
5.03839e-13
5.47101e-13
5.52049e-13
5.52607e-13
5.48595e-13
5.21348e-13
5.11482e-13
4.9629e-13
4.75769e-13
4.76368e-13
4.98012e-13
5.13448e-13
5.02774e-13
4.91608e-13
4.96167e-13
5.16297e-13
5.11807e-13
5.08667e-13
5.00389e-13
5.21443e-13
5.50697e-13
5.42705e-13
5.36389e-13
5.27983e-13
5.08165e-13
5.10049e-13
5.05271e-13
4.86934e-13
4.84555e-13
4.87623e-13
4.89258e-13
4.86915e-13
4.81459e-13
4.86069e-13
5.08895e-13
5.24783e-13
5.35671e-13
5.20888e-13
5.23284e-13
5.48674e-13
5.61528e-13
5.53922e-13
5.2342e-13
5.06406e-13
5.15962e-13
5.06884e-13
4.80466e-13
4.68138e-13
4.75874e-13
4.95308e-13
5.01413e-13
4.9756e-13
5.10092e-13
5.35156e-13
5.33663e-13
5.28219e-13
5.08816e-13
5.10613e-13
5.42753e-13
5.52159e-13
5.25966e-13
5.07387e-13
4.91804e-13
4.9128e-13
4.96426e-13
4.91893e-13
4.79013e-13
4.75646e-13
4.82562e-13
4.80406e-13
4.74206e-13
4.81415e-13
5.40345e-13
5.4788e-13
5.4472e-13
5.33843e-13
5.44093e-13
5.4258e-13
5.31244e-13
5.37825e-13
5.17356e-13
4.83292e-13
4.8395e-13
4.90219e-13
4.79135e-13
4.63206e-13
4.63407e-13
4.77399e-13
4.84611e-13
4.9818e-13
5.23859e-13
5.48199e-13
5.35739e-13
5.21626e-13
5.236e-13
5.17165e-13
5.14494e-13
5.34046e-13
5.24332e-13
4.9603e-13
4.72853e-13
4.62598e-13
4.67952e-13
4.79024e-13
4.70355e-13
4.61838e-13
4.72841e-13
4.77922e-13
4.77641e-13
4.91156e-13
5.69978e-13
5.43287e-13
5.2802e-13
5.23047e-13
5.27503e-13
5.23342e-13
5.03846e-13
4.97619e-13
5.02702e-13
4.81302e-13
4.55006e-13
4.58781e-13
4.69487e-13
4.62373e-13
4.68249e-13
4.82579e-13
4.93096e-13
5.10192e-13
5.24126e-13
5.45254e-13
5.26787e-13
5.16194e-13
5.23375e-13
5.22159e-13
4.94981e-13
4.88254e-13
5.02921e-13
4.94474e-13
4.64622e-13
4.48031e-13
4.49409e-13
4.64096e-13
4.70953e-13
4.62039e-13
4.62595e-13
4.78651e-13
4.98645e-13
5.16054e-13
5.56839e-13
5.26724e-13
5.20517e-13
5.13514e-13
5.13117e-13
5.08877e-13
4.92337e-13
4.74522e-13
4.6792e-13
4.73495e-13
4.60417e-13
4.51794e-13
4.62844e-13
4.65267e-13
4.77292e-13
4.91062e-13
5.05407e-13
5.19238e-13
5.24421e-13
5.35508e-13
5.21597e-13
5.06825e-13
5.05106e-13
5.14789e-13
4.95903e-13
4.69834e-13
4.65334e-13
4.7792e-13
4.72356e-13
4.52482e-13
4.46078e-13
4.52851e-13
4.67533e-13
4.73958e-13
4.74933e-13
4.88784e-13
5.14913e-13
5.31068e-13
5.31611e-13
5.20949e-13
5.14027e-13
5.03948e-13
5.10685e-13
5.02656e-13
4.86577e-13
4.71465e-13
4.60078e-13
4.60184e-13
4.65636e-13
4.70547e-13
4.68771e-13
4.69518e-13
4.83957e-13
4.9635e-13
5.03251e-13
5.13599e-13
5.31622e-13
5.32025e-13
5.17958e-13
4.97505e-13
4.94268e-13
5.01371e-13
4.86598e-13
4.67972e-13
4.5128e-13
4.4777e-13
4.62255e-13
4.60345e-13
4.46806e-13
4.458e-13
4.58419e-13
4.79707e-13
4.9769e-13
5.04166e-13
5.07722e-13
5.19494e-13
5.33959e-13
5.16249e-13
4.97284e-13
4.94003e-13
4.96302e-13
4.82566e-13
4.73298e-13
4.61526e-13
4.58198e-13
4.55279e-13
4.5439e-13
4.74537e-13
4.77505e-13
4.64255e-13
4.75072e-13
4.92835e-13
4.99254e-13
5.06955e-13
5.26743e-13
5.27896e-13
5.14552e-13
4.98238e-13
4.92572e-13
4.82273e-13
4.66019e-13
4.64193e-13
4.57677e-13
4.40671e-13
4.36911e-13
4.52851e-13
4.5531e-13
4.51225e-13
4.53386e-13
4.63767e-13
4.90452e-13
5.02535e-13
4.94065e-13
5.04378e-13
5.51028e-13
5.20176e-13
4.98025e-13
4.88228e-13
4.77734e-13
4.64643e-13
4.59884e-13
4.52262e-13
4.45984e-13
4.515e-13
4.53564e-13
4.60919e-13
4.75399e-13
4.6696e-13
4.66329e-13
4.86603e-13
5.00431e-13
5.09825e-13
5.1939e-13
5.38236e-13
5.16832e-13
5.0572e-13
4.88357e-13
4.67399e-13
4.58386e-13
4.53165e-13
4.52666e-13
4.49132e-13
4.34975e-13
4.40378e-13
4.57181e-13
4.65921e-13
4.67469e-13
4.63103e-13
4.81159e-13
4.96859e-13
4.9045e-13
5.00621e-13
5.61102e-13
5.35605e-13
5.19178e-13
4.94342e-13
4.67703e-13
4.51663e-13
4.45435e-13
4.45244e-13
4.47766e-13
4.49841e-13
4.57592e-13
4.62244e-13
4.73118e-13
4.80453e-13
4.85392e-13
4.97211e-13
5.01902e-13
5.144e-13
5.25706e-13
5.49914e-13
5.28222e-13
5.14743e-13
4.89425e-13
4.66941e-13
4.52504e-13
4.39493e-13
4.40041e-13
4.49476e-13
4.44702e-13
4.39236e-13
4.47936e-13
4.65814e-13
4.85138e-13
4.78966e-13
4.83685e-13
5.01834e-13
4.98854e-13
5.08212e-13
5.7239e-13
5.55105e-13
5.29982e-13
4.94061e-13
4.64013e-13
4.45112e-13
4.37557e-13
4.4068e-13
4.50264e-13
4.54529e-13
4.66011e-13
4.82061e-13
4.90273e-13
4.94942e-13
5.08455e-13
5.21592e-13
5.14144e-13
5.15083e-13
5.29003e-13
5.56062e-13
5.42337e-13
5.19523e-13
4.97851e-13
4.69711e-13
4.44022e-13
4.35675e-13
4.37294e-13
4.44696e-13
4.49954e-13
4.53091e-13
4.5273e-13
4.65868e-13
4.89661e-13
4.91157e-13
4.93923e-13
5.06771e-13
5.09975e-13
5.23902e-13
5.84773e-13
5.58203e-13
5.21368e-13
5.01223e-13
4.84456e-13
4.56059e-13
4.39482e-13
4.42741e-13
4.52238e-13
4.65128e-13
4.8074e-13
4.98215e-13
5.10354e-13
4.98424e-13
5.05722e-13
5.31145e-13
5.32354e-13
5.35183e-13
5.40277e-13
5.71622e-13
5.4136e-13
5.07541e-13
4.95526e-13
4.86185e-13
4.58911e-13
4.4081e-13
4.42285e-13
4.4269e-13
4.54204e-13
4.70344e-13
4.73564e-13
4.8529e-13
4.96833e-13
5.05438e-13
5.19885e-13
5.16704e-13
5.15606e-13
5.37367e-13
5.79188e-13
5.44101e-13
5.09492e-13
5.0702e-13
5.11428e-13
4.90107e-13
4.61565e-13
4.50046e-13
4.63119e-13
4.84169e-13
4.99667e-13
5.13151e-13
5.29311e-13
5.25075e-13
5.23546e-13
5.26406e-13
5.37044e-13
5.57031e-13
5.47363e-13
5.59202e-13
5.31468e-13
5.04827e-13
4.91478e-13
4.98784e-13
4.89018e-13
4.58351e-13
4.50509e-13
4.51717e-13
4.61736e-13
4.84713e-13
4.96601e-13
5.12031e-13
5.2136e-13
5.22217e-13
5.37874e-13
5.40026e-13
5.242e-13
5.37563e-13
5.55146e-13
5.33659e-13
5.14475e-13
5.07395e-13
5.12582e-13
5.11347e-13
4.88268e-13
4.67053e-13
4.7969e-13
5.0509e-13
5.20891e-13
5.33719e-13
5.51433e-13
5.66742e-13
5.64463e-13
5.43336e-13
5.39222e-13
5.65006e-13
5.55676e-13
5.36024e-13
5.28345e-13
5.17078e-13
5.08302e-13
5.052e-13
5.07002e-13
4.90896e-13
4.71249e-13
4.70839e-13
4.84093e-13
5.04852e-13
5.19969e-13
5.34915e-13
5.50515e-13
5.42886e-13
5.43897e-13
5.54171e-13
5.42574e-13
5.47532e-13
5.52449e-13
5.50909e-13
5.38545e-13
5.22379e-13
5.19851e-13
5.189e-13
5.08862e-13
4.97221e-13
5.03836e-13
5.2766e-13
5.47335e-13
5.6514e-13
5.7095e-13
5.67442e-13
5.608e-13
5.48358e-13
5.45788e-13
5.53231e-13
5.63392e-13
5.25615e-13
5.2253e-13
5.20907e-13
5.23175e-13
5.13164e-13
5.0907e-13
5.07764e-13
4.93712e-13
4.97912e-13
5.15153e-13
5.32207e-13
5.50597e-13
5.59534e-13
5.7039e-13
5.60107e-13
5.41875e-13
5.45415e-13
5.63171e-13
5.79784e-13
3.99867e-13
4.2606e-13
3.54872e-13
3.06238e-13
2.95988e-13
2.21448e-12
2.03894e-12
1.8774e-12
1.71003e-12
1.50121e-12
1.34085e-12
1.24577e-12
1.1313e-12
1.01979e-12
9.08043e-13
7.77676e-13
6.48741e-13
5.79096e-13
5.25179e-13
4.23413e-13
4.48131e-13
4.02607e-13
3.67564e-13
3.42061e-13
2.57901e-12
2.33147e-12
2.61351e-13
2.33851e-13
1.70142e-12
1.56258e-12
1.3912e-12
1.27615e-12
1.16592e-12
9.97071e-13
8.44914e-13
7.72573e-13
6.98199e-13
5.9348e-13
4.04731e-13
4.07876e-13
3.39826e-13
3.22362e-13
3.10712e-13
2.90487e-13
2.75652e-13
2.06872e-12
1.9044e-12
1.72848e-12
1.53548e-12
1.38097e-12
1.24493e-12
1.14357e-12
9.72523e-13
8.04406e-13
7.07202e-13
6.36261e-13
5.54043e-13
4.31023e-13
4.52576e-13
4.12343e-13
3.84935e-13
3.56145e-13
3.34839e-13
3.02732e-13
2.89517e-13
2.6335e-13
1.88778e-12
1.67292e-12
1.50152e-12
1.41661e-12
1.26424e-12
1.06459e-12
9.23912e-13
8.27193e-13
7.26956e-13
6.28076e-13
4.11374e-13
4.1766e-13
3.66897e-13
3.6053e-13
3.50096e-13
3.05647e-13
2.84872e-13
2.65007e-13
2.41744e-13
1.79035e-12
1.58345e-12
1.42913e-12
1.3027e-12
1.24661e-12
1.06038e-12
8.97152e-13
8.06789e-13
7.14127e-13
6.09256e-13
4.44415e-13
4.59794e-13
4.2931e-13
4.0726e-13
3.87114e-13
3.5955e-13
3.2048e-13
2.97553e-13
2.7323e-13
2.02384e-12
1.78324e-12
1.61168e-12
1.52875e-12
1.34881e-12
1.15744e-12
1.03469e-12
8.97185e-13
7.49635e-13
6.45466e-13
4.37786e-13
4.35429e-13
3.96013e-13
3.73014e-13
3.52556e-13
3.3074e-13
3.09126e-13
2.8293e-13
2.62477e-13
1.86646e-12
1.68113e-12
1.51995e-12
1.3569e-12
1.25912e-12
1.08385e-12
9.65055e-13
8.75263e-13
7.5607e-13
6.3464e-13
4.69468e-13
4.81511e-13
4.57158e-13
4.34911e-13
4.08076e-13
3.802e-13
3.4487e-13
3.19957e-13
2.90575e-13
2.66296e-13
2.38576e-13
1.75667e-12
1.59429e-12
1.37035e-12
1.20661e-12
1.11023e-12
9.74247e-13
8.06413e-13
6.72606e-13
3.7198e-12
4.87378e-13
4.22696e-13
3.91915e-13
3.64392e-13
3.45857e-13
3.14661e-13
2.88294e-13
2.70735e-13
1.94544e-12
1.81626e-12
1.63992e-12
1.45987e-12
1.30513e-12
1.14261e-12
1.05598e-12
9.40017e-13
7.75684e-13
6.39212e-13
4.87478e-13
5.24066e-13
4.87856e-13
4.55429e-13
4.18258e-13
3.91044e-13
3.6155e-13
3.36383e-13
3.05355e-13
2.77544e-13
2.517e-13
1.86846e-12
1.64043e-12
1.39473e-12
1.29031e-12
1.19682e-12
1.02334e-12
8.42463e-13
6.96726e-13
4.508e-13
4.85805e-13
4.36553e-13
3.97053e-13
3.73841e-13
3.41288e-13
3.20168e-13
3.01362e-13
2.83552e-13
2.02102e-12
1.90259e-12
1.72526e-12
1.51856e-12
1.35563e-12
1.21509e-12
1.11127e-12
9.61192e-13
7.844e-13
6.5112e-13
4.83508e-13
5.46781e-13
5.03641e-13
4.6933e-13
4.2877e-13
4.02665e-13
3.71182e-13
3.48972e-13
3.17281e-13
2.86648e-13
2.63242e-13
1.9496e-12
1.68389e-12
1.46831e-12
1.4015e-12
1.22895e-12
1.00734e-12
8.43376e-13
7.19788e-13
5.03246e-13
4.96074e-13
4.25773e-13
4.2403e-13
4.05035e-13
3.61287e-13
3.43839e-13
3.2559e-13
2.98977e-13
2.12685e-12
1.97246e-12
1.75846e-12
1.54493e-12
1.4014e-12
1.28649e-12
1.12573e-12
9.31766e-13
7.79336e-13
6.63953e-13
5.29861e-13
5.65312e-13
5.37033e-13
5.05954e-13
4.6272e-13
4.25528e-13
3.86386e-13
3.58706e-13
3.26417e-13
3.00583e-13
2.74827e-13
1.96238e-12
1.69635e-12
1.56135e-12
1.48449e-12
1.21256e-12
9.86236e-13
8.53138e-13
7.50634e-13
5.03439e-13
5.30641e-13
4.69353e-13
4.50422e-13
4.27599e-13
3.83438e-13
3.47369e-13
3.25809e-13
3.01304e-13
2.68464e-13
2.50231e-13
1.76445e-12
1.58825e-12
1.45869e-12
1.34549e-12
1.1237e-12
9.09491e-13
7.92185e-13
7.07197e-13
5.56484e-13
5.97472e-13
5.73966e-13
5.45128e-13
4.98563e-13
4.54548e-13
4.04512e-13
3.65747e-13
3.33073e-13
3.07434e-13
2.74911e-13
1.98317e-12
1.74726e-12
1.62735e-12
1.48149e-12
1.17712e-12
9.77341e-13
8.81775e-13
7.95181e-13
5.77725e-13
5.69621e-13
5.17701e-13
4.87187e-13
4.47476e-13
4.02782e-13
3.42254e-13
3.30025e-13
3.00849e-13
2.72513e-13
2.5376e-13
1.80997e-12
1.60796e-12
1.4519e-12
1.33335e-12
1.1081e-12
9.30771e-13
8.47815e-13
7.79193e-13
6.1618e-13
6.48471e-13
6.06292e-13
5.66712e-13
5.25145e-13
4.7759e-13
4.20599e-13
3.82412e-13
3.39585e-13
3.15432e-13
2.79372e-13
2.03043e-12
1.80694e-12
1.62061e-12
1.4308e-12
1.16179e-12
1.01045e-12
9.4324e-13
8.39778e-13
6.08296e-13
5.93891e-13
5.25069e-13
5.08412e-13
4.68088e-13
4.24127e-13
3.77382e-13
3.59796e-13
3.21955e-13
2.78426e-13
2.56188e-13
1.89227e-12
1.62856e-12
1.44187e-12
1.31299e-12
1.08667e-12
9.52893e-13
8.9327e-13
8.01332e-13
6.5671e-13
7.08697e-13
6.71055e-13
6.11306e-13
5.49971e-13
5.06407e-13
4.5363e-13
4.12133e-13
3.61051e-13
3.30858e-13
2.864e-13
2.0614e-12
1.8459e-12
1.61486e-12
1.39858e-12
1.17707e-12
1.0856e-12
9.96943e-13
8.43162e-13
6.83962e-13
6.57213e-13
5.94282e-13
5.6902e-13
4.88476e-13
4.77793e-13
4.07712e-13
3.55752e-13
3.33514e-13
2.95631e-13
2.56913e-13
1.91318e-12
1.64419e-12
1.4262e-12
1.27404e-12
1.08368e-12
9.95783e-13
9.15761e-13
7.73823e-13
7.17257e-13
7.59023e-13
7.18627e-13
6.49496e-13
5.74935e-13
5.47408e-13
4.86726e-13
4.16484e-13
3.78059e-13
3.45452e-13
2.9146e-13
2.06078e-12
1.84693e-12
1.6186e-12
1.38211e-12
1.21034e-12
1.14225e-12
9.98114e-13
8.20315e-13
7.61385e-13
6.44769e-13
5.97069e-13
5.53163e-13
5.27657e-13
4.90431e-13
4.17817e-13
3.6213e-13
3.42589e-13
2.87913e-13
2.55717e-13
1.88287e-12
1.67891e-12
1.45662e-12
1.2814e-12
1.12862e-12
1.04639e-12
9.2725e-13
7.61491e-13
8.01434e-13
8.10134e-13
7.57213e-13
7.10954e-13
6.38299e-13
5.97471e-13
5.06787e-13
4.40536e-13
3.95238e-13
3.43161e-13
2.96734e-13
2.09057e-12
1.84459e-12
1.61196e-12
1.38998e-12
1.24374e-12
1.14913e-12
9.74624e-13
7.99436e-13
9.02239e-13
7.92341e-13
6.7233e-13
6.32992e-13
5.49712e-13
5.31812e-13
4.52911e-13
4.00035e-13
3.59259e-13
2.81468e-13
2.64807e-13
1.87403e-12
1.65111e-12
1.44068e-12
1.2977e-12
1.12542e-12
1.01202e-12
9.16925e-13
7.71188e-13
9.34104e-13
9.74434e-13
8.50827e-13
7.56755e-13
6.9323e-13
6.284e-13
5.45033e-13
4.79051e-13
4.03825e-13
3.47389e-13
3.02455e-13
2.07026e-12
1.78866e-12
1.54302e-12
1.391e-12
1.23667e-12
1.11486e-12
9.75936e-13
8.15772e-13
1.09054e-12
7.82686e-13
6.57035e-13
6.7849e-13
5.82653e-13
5.77125e-13
4.49277e-13
4.05194e-13
3.34893e-13
2.88272e-13
2.77144e-13
1.89696e-12
1.60406e-12
1.37392e-12
1.27141e-12
1.08954e-12
9.67811e-13
8.98048e-13
7.63956e-13
1.08352e-12
1.08961e-12
9.3682e-13
8.65969e-13
7.6402e-13
6.66906e-13
5.902e-13
4.92139e-13
4.03684e-13
3.54888e-13
3.02459e-13
2.04417e-12
1.7735e-12
1.49254e-12
1.37802e-12
1.21568e-12
1.08104e-12
9.68057e-13
8.18917e-13
1.10688e-12
9.31112e-13
8.12932e-13
7.5843e-13
6.37391e-13
5.90451e-13
4.76792e-13
4.14493e-13
3.4802e-13
2.97955e-13
2.70405e-13
1.84346e-12
1.59305e-12
1.3437e-12
1.2379e-12
1.09776e-12
9.60641e-13
8.65914e-13
7.36596e-13
1.33146e-12
1.28418e-12
1.11953e-12
9.70821e-13
8.42956e-13
7.3314e-13
6.09112e-13
5.11577e-13
4.21425e-13
3.70326e-13
3.04827e-13
2.03813e-12
1.81046e-12
1.50756e-12
1.35542e-12
1.21924e-12
1.06236e-12
9.15548e-13
7.74971e-13
1.54781e-12
1.29175e-12
8.92135e-13
8.39708e-13
7.76551e-13
5.83369e-13
4.9484e-13
4.21541e-13
3.69444e-13
2.96698e-13
2.59038e-13
1.81057e-12
1.6072e-12
1.36802e-12
1.19482e-12
1.09564e-12
9.58281e-13
8.29791e-13
7.09149e-13
1.72051e-12
1.65607e-12
1.27542e-12
1.05121e-12
9.11631e-13
7.66559e-13
6.33212e-13
5.17118e-13
4.3613e-13
3.61551e-13
2.9515e-13
2.02234e-12
1.78465e-12
1.53288e-12
1.3294e-12
1.20356e-12
1.04674e-12
8.68146e-13
7.475e-13
1.8337e-12
1.28324e-12
8.72019e-13
8.21097e-13
7.02457e-13
6.27815e-13
5.3248e-13
4.26661e-13
3.56622e-13
2.82887e-13
2.59548e-13
1.79079e-12
1.58125e-12
1.37695e-12
1.16599e-12
1.03639e-12
9.20127e-13
7.76822e-13
6.61651e-13
1.87476e-12
1.76621e-12
1.35905e-12
1.11629e-12
9.08858e-13
7.80084e-13
6.55152e-13
5.44734e-13
4.23527e-13
3.46462e-13
2.92235e-13
1.98937e-12
1.72878e-12
1.52862e-12
1.30543e-12
1.13945e-12
1.02138e-12
8.39637e-13
6.98591e-13
2.01171e-12
1.24909e-12
9.81826e-13
7.4965e-13
5.91704e-13
5.85214e-13
5.09691e-13
4.18156e-13
3.35813e-13
2.91937e-13
2.47569e-13
1.6855e-12
1.45118e-12
1.2704e-12
1.1194e-12
9.47975e-13
8.27009e-13
6.98355e-13
5.80324e-13
1.95187e-12
1.59639e-12
1.30384e-12
9.79953e-13
8.47294e-13
7.2684e-13
6.31722e-13
5.35942e-13
4.08617e-13
3.42293e-13
2.85736e-13
1.8919e-12
1.61165e-12
1.43162e-12
1.24799e-12
1.04809e-12
9.29884e-13
7.76355e-13
6.17787e-13
1.79527e-12
1.09337e-12
8.21142e-13
7.14414e-13
6.1835e-13
5.96298e-13
4.53916e-13
3.73612e-13
3.23259e-13
2.36251e-12
1.86754e-12
1.63854e-12
1.37307e-12
1.18206e-12
1.04283e-12
8.84614e-13
7.22945e-13
6.30113e-13
5.11649e-13
1.79873e-12
1.39258e-12
1.11954e-12
9.03835e-13
8.07635e-13
6.84759e-13
5.8351e-13
4.91566e-13
3.96581e-13
2.64514e-12
2.09411e-12
1.86226e-12
1.52445e-12
1.35484e-12
1.17661e-12
9.77781e-13
8.1909e-13
7.12668e-13
5.60681e-13
3.1946e-12
4.0991e-13
3.54389e-13
2.98541e-13
2.81335e-13
1.98088e-12
1.75594e-12
1.63771e-12
1.5216e-12
1.35216e-12
1.22295e-12
1.17372e-12
1.08585e-12
9.93939e-13
9.15368e-13
8.01964e-13
6.73237e-13
5.90845e-13
5.51136e-13
3.76072e-13
4.61852e-13
3.29445e-13
2.91271e-13
2.61982e-13
1.88247e-12
1.6274e-12
1.51944e-12
1.41285e-12
1.29101e-12
1.22153e-12
1.15505e-12
1.06038e-12
1.00953e-12
9.50607e-13
8.12234e-13
6.92387e-13
6.27365e-13
5.70961e-13
4.4194e-13
4.87084e-13
3.31099e-13
2.81428e-13
2.44528e-13
1.74727e-12
1.50297e-12
1.44316e-12
1.36723e-12
1.27867e-12
1.22475e-12
1.16593e-12
1.09106e-12
1.04969e-12
9.82953e-13
8.28522e-13
7.0974e-13
6.6403e-13
6.06377e-13
5.48262e-13
4.83861e-13
3.28347e-13
2.83243e-13
1.91761e-12
1.64604e-12
1.45944e-12
1.4409e-12
1.40757e-12
1.34568e-12
1.27444e-12
1.20017e-12
1.14132e-12
1.09204e-12
9.93102e-13
8.36247e-13
7.45366e-13
7.1417e-13
6.60443e-13
5.89812e-13
4.46148e-13
3.20882e-13
2.75344e-13
1.83785e-12
1.62178e-12
1.47864e-12
1.3973e-12
1.38416e-12
1.37187e-12
1.30377e-12
1.21368e-12
1.15723e-12
1.10123e-12
1.00302e-12
8.82568e-13
8.04092e-13
7.46957e-13
6.88376e-13
5.89657e-13
4.44972e-13
2.52239e-12
2.06285e-12
1.77584e-12
1.62945e-12
1.49574e-12
1.38562e-12
1.37735e-12
1.37836e-12
1.31313e-12
1.24836e-12
1.19934e-12
1.1213e-12
1.02384e-12
9.31858e-13
8.5027e-13
7.76787e-13
7.15474e-13
6.23448e-13
4.38918e-13
2.93977e-13
2.45914e-13
1.79714e-12
1.64267e-12
1.52615e-12
1.43658e-12
1.3988e-12
1.41132e-12
1.34609e-12
1.26346e-12
1.20336e-12
1.15278e-12
1.08708e-12
9.76293e-13
8.82927e-13
8.23966e-13
7.55689e-13
6.53145e-13
4.16369e-13
2.92233e-13
2.54803e-13
1.88218e-12
1.67753e-12
1.55381e-12
1.45539e-12
1.41244e-12
1.45804e-12
1.411e-12
1.30119e-12
1.2528e-12
1.23564e-12
1.19259e-12
1.07367e-12
9.40545e-13
8.5154e-13
7.54188e-13
6.48491e-13
4.44571e-13
3.01941e-13
2.6109e-13
1.98024e-12
1.77161e-12
1.59693e-12
1.49094e-12
1.50939e-12
1.53725e-12
1.49241e-12
1.40866e-12
1.38754e-12
1.346e-12
1.26397e-12
1.1641e-12
9.99781e-13
8.61563e-13
7.59467e-13
6.84005e-13
4.4212e-13
3.10992e-13
2.83312e-13
2.49166e-13
2.28884e-13
1.71682e-12
1.63582e-12
1.67778e-12
1.67502e-12
1.64677e-12
1.57111e-12
1.49394e-12
1.39206e-12
1.27003e-12
1.1614e-12
9.94507e-13
8.38171e-13
7.48491e-13
7.16196e-13
4.47744e-13
3.35414e-13
2.84658e-13
2.58406e-13
2.51086e-13
1.95603e-12
1.8891e-12
1.84219e-12
1.79283e-12
1.77416e-12
1.66454e-12
1.50769e-12
1.37295e-12
1.24006e-12
1.11099e-12
9.49208e-13
8.0435e-13
7.28262e-13
8.49496e-13
5.58123e-13
3.68679e-13
3.08036e-13
2.86333e-13
2.7669e-13
2.59849e-13
2.54928e-13
1.96801e-12
1.86298e-12
1.77228e-12
1.66197e-12
1.51287e-12
1.34604e-12
1.1812e-12
1.06777e-12
9.35578e-13
7.93342e-13
7.10982e-13
8.27821e-13
5.51944e-13
3.82611e-13
3.2877e-12
3.65413e-13
3.20384e-13
2.96893e-13
2.72383e-13
2.01239e-12
1.86485e-12
1.70573e-12
1.5856e-12
1.41916e-12
1.23442e-12
1.08278e-12
9.89537e-13
8.94582e-13
7.6998e-13
6.76327e-13
9.28201e-13
6.1944e-13
4.82697e-13
4.1045e-13
3.84128e-13
3.25739e-13
3.06395e-13
2.09322e-12
1.93638e-12
1.756e-12
1.59248e-12
1.44729e-12
1.26618e-12
1.1335e-12
1.01579e-12
9.1383e-13
8.36735e-13
7.39536e-13
6.4475e-13
9.31683e-13
6.71945e-13
5.17519e-13
4.48888e-13
3.85942e-13
3.32108e-13
2.8072e-13
1.9472e-12
1.78349e-12
1.58945e-12
1.45996e-12
1.33208e-12
1.18122e-12
1.07634e-12
9.74175e-13
8.71448e-13
7.9527e-13
7.13711e-13
6.1306e-13
1.00498e-12
6.87376e-13
5.50539e-13
4.15242e-13
3.41933e-13
3.08369e-13
2.49811e-13
1.82797e-12
1.64568e-12
1.47995e-12
1.36208e-12
1.2509e-12
1.14223e-12
1.01534e-12
9.10433e-13
8.24046e-13
7.46307e-13
6.8432e-13
6.01792e-13
8.45618e-13
6.69211e-13
5.2764e-13
3.8999e-13
3.10745e-13
2.80113e-13
2.47329e-13
1.77806e-12
1.53706e-12
1.40634e-12
1.28979e-12
1.16422e-12
1.08348e-12
9.78447e-13
8.57676e-13
7.80165e-13
7.11371e-13
6.48025e-13
5.80349e-13