/*--------------------------------*- C++ -*----------------------------------*\
| =========                 |                                                 |
| \\      /  F ield         | foam-extend: Open Source CFD                    |
|  \\    /   O peration     | Version:     3.1                                |
|   \\  /    A nd           | Web:         http://www.extend-project.de       |
|    \\/     M anipulation  |                                                 |
\*---------------------------------------------------------------------------*/
FoamFile
{
    version     2.0;
    format      ascii;
    class       volScalarField;
    location    "345600";
    object      X;
}
// * * * * * * * * * * * * * * * * * * * * * * * * * * * * * * * * * * * * * //

dimensions      [0 1 0 0 0 0 0];

internalField   nonuniform List<scalar> 
23248
(
0.00641073
0.00641074
0.00641073
0.00641073
0.00641072
0.0064107
0.00641066
0.0064104
0.0064083
0.00641492
0.00641491
0.00641491
0.00641492
0.0064149
0.00641486
0.00641482
0.00641453
0.00641294
0.00661464
0.00661464
0.00661464
0.00661465
0.00661464
0.00661464
0.00661462
0.00661438
0.00661247
0.00662954
0.00662954
0.00662955
0.00662955
0.00662955
0.00662955
0.00662951
0.0066291
0.00662699
0.00682088
0.00682088
0.00682088
0.0068209
0.00682088
0.00682089
0.00682089
0.00682069
0.00681902
0.00684615
0.00684615
0.00684616
0.00684618
0.00684617
0.00684616
0.00684609
0.00684569
0.00684394
0.00702559
0.00702559
0.00702559
0.0070256
0.00702559
0.00702561
0.00702565
0.00702562
0.00702588
0.00706657
0.00706658
0.00706658
0.00706658
0.00706657
0.00706654
0.00706647
0.00706616
0.00706484
0.00725515
0.00725516
0.00725517
0.00725519
0.0072552
0.00725524
0.00725532
0.00725497
0.00725102
0.00729723
0.00729723
0.00729724
0.00729723
0.00729724
0.00729728
0.00729731
0.007297
0.00729452
0.0074648
0.0074648
0.0074648
0.00746481
0.0074648
0.00746485
0.00746499
0.00746514
0.00746649
0.00751683
0.00751683
0.00751683
0.00751683
0.00751685
0.00751686
0.00751691
0.00751682
0.00751487
0.00766298
0.007663
0.007663
0.00766301
0.00766298
0.00766298
0.00766313
0.00766326
0.00766404
0.00773396
0.00773396
0.00773395
0.00773395
0.00773393
0.0077339
0.00773389
0.00773379
0.00773268
0.00787594
0.00787593
0.00787595
0.00787596
0.00787604
0.00787616
0.00787639
0.00787714
0.00787835
0.00795892
0.00795892
0.00795891
0.0079589
0.0079589
0.0079589
0.00795887
0.00795855
0.00795583
0.00809204
0.00809207
0.0080921
0.00809213
0.00809215
0.00809214
0.0080924
0.00809267
0.00809152
0.00818097
0.00818097
0.00818096
0.00818096
0.00818094
0.00818088
0.00818082
0.00818039
0.0081777
0.00831794
0.00831793
0.00831793
0.00831795
0.00831796
0.00831775
0.00831676
0.00831879
0.0083149
0.00841008
0.00841008
0.00841009
0.00841009
0.00841005
0.00840983
0.00840949
0.00840903
0.00840566
0.0085389
0.0085389
0.00853884
0.00853883
0.00853885
0.0085387
0.00862289
0.00853657
0.00853582
0.00864338
0.00864338
0.00864338
0.00864338
0.00864333
0.00864296
0.00864183
0.00864161
0.00863811
0.0087668
0.0087668
0.0087668
0.00876683
0.00876689
0.0087677
0.0087728
0.00877057
0.00876826
0.00888705
0.00888704
0.00888703
0.00888703
0.00888704
0.00888713
0.00888717
0.00888635
0.00888154
0.00903613
0.00903614
0.00903615
0.00903619
0.00903627
0.00903659
0.00903667
0.00903668
0.00903313
0.009154
0.00915399
0.009154
0.00915402
0.00915408
0.0091542
0.00915426
0.00915307
0.00914503
0.00930399
0.00930405
0.00930407
0.00930412
0.00930421
0.00930437
0.00930462
0.00930448
0.00929943
0.00943496
0.00943497
0.00943498
0.00943499
0.00943501
0.00943499
0.00943467
0.00943259
0.00942174
0.00959515
0.00959522
0.00959524
0.00959528
0.00959538
0.00959556
0.0095958
0.00959532
0.00958591
0.0097319
0.00973191
0.00973192
0.00973192
0.00973191
0.00973182
0.0097313
0.00972817
0.00971251
0.00986559
0.00986581
0.00986584
0.00986589
0.009866
0.00986619
0.00986641
0.00986533
0.00985164
0.010013
0.010013
0.010013
0.010013
0.0100129
0.0100128
0.0100119
0.010007
0.00998333
0.0101095
0.0101095
0.0101095
0.0101096
0.0101097
0.0101099
0.0101099
0.0101078
0.0100852
0.010238
0.010238
0.010238
0.010238
0.0102379
0.0102376
0.0102363
0.0102295
0.0101982
0.0102231
0.0102232
0.0102232
0.0102232
0.0102233
0.0102235
0.0102236
0.0102218
0.0102027
0.0103509
0.0103509
0.0103509
0.0103508
0.0103507
0.0103504
0.0103491
0.0103425
0.0103137
0.01023
0.01023
0.01023
0.01023
0.0102302
0.0102304
0.0102306
0.0102294
0.0102157
0.0103622
0.0103622
0.0103622
0.0103621
0.010362
0.0103617
0.0103605
0.0103546
0.0103279
0.00630754
0.00630754
0.00630754
0.00630752
0.00630742
0.00630743
0.00630739
0.00630693
0.00630532
0.00611641
0.00611644
0.0061166
0.00611664
0.00606607
0.0061165
0.00611624
0.00606454
0.00605975
0.00587352
0.00587359
0.00593091
0.00593102
0.00593006
0.00587332
0.00587306
0.00592921
0.005926
0.00573568
0.00573567
0.0057356
0.00573548
0.00573547
0.00573555
0.00573542
0.00573508
0.00573457
0.00554527
0.00554533
0.00554546
0.00554558
0.0055455
0.00554539
0.00554531
0.00554517
0.00554644
0.00536918
0.0053692
0.00536926
0.00536924
0.00536917
0.00536909
0.00536897
0.00536888
0.0053704
0.00519307
0.00519309
0.00519314
0.00519311
0.00519303
0.00519296
0.00519282
0.00519294
0.00519875
0.00500986
0.00500986
0.00500987
0.00500988
0.00500983
0.00500977
0.00500968
0.00500977
0.00501221
0.00483696
0.00483695
0.00483695
0.00483697
0.00483695
0.0048369
0.00483693
0.00483694
0.00483481
0.00464848
0.00464849
0.00464849
0.00464867
0.00464913
0.00464891
0.00464882
0.00464894
0.00465196
0.00446604
0.00446603
0.00446602
0.00446602
0.00446586
0.00446586
0.00446569
0.0044653
0.00446313
0.00426034
0.00426034
0.00426033
0.00426031
0.00426027
0.00426017
0.00426001
0.00426009
0.0042633
0.00406686
0.00406687
0.00406686
0.00406684
0.00406678
0.00406672
0.00406665
0.00406703
0.00407365
0.00390226
0.00390229
0.00390228
0.00390225
0.00390218
0.00390206
0.00390197
0.00390228
0.00390837
0.00376431
0.00376431
0.00376429
0.00376425
0.00376418
0.00376404
0.00376382
0.00376398
0.00376924
0.00366333
0.00366332
0.0036633
0.00366326
0.00366318
0.003663
0.00366271
0.00366272
0.00366729
0.00359294
0.00359294
0.00359291
0.00359287
0.00359278
0.0035926
0.00359228
0.00359216
0.00359581
0.00354514
0.00354513
0.00354511
0.00354507
0.00354497
0.00354478
0.00354446
0.0035444
0.00354905
0.00352346
0.00352346
0.00352344
0.00352339
0.0035233
0.00352311
0.00352278
0.00352276
0.00352799
0.00630795
0.00630794
0.00630793
0.0063079
0.00630785
0.00630778
0.00630768
0.00630732
0.00630628
0.00610575
0.00610575
0.00610574
0.0061057
0.00610566
0.00610563
0.00610551
0.00610502
0.00610283
0.00590434
0.00590434
0.00590423
0.00590413
0.00590407
0.00590421
0.00590428
0.00590371
0.00590085
0.00570057
0.00570059
0.00570052
0.00570043
0.00570039
0.00570047
0.00570056
0.0057006
0.00570054
0.00550438
0.00550439
0.00550443
0.00550446
0.00550446
0.00550443
0.00550443
0.00550461
0.005505
0.00531585
0.00531587
0.0053159
0.00531593
0.00531593
0.00531592
0.00531593
0.0053162
0.00531727
0.00512766
0.00512766
0.00512767
0.00512767
0.00512766
0.00512767
0.00512777
0.00512855
0.00513151
0.00494484
0.00494484
0.00494485
0.00494485
0.00494486
0.00494489
0.00494504
0.00494622
0.00495178
0.00475588
0.00475588
0.00475589
0.00475592
0.00475595
0.004756
0.00475618
0.00475744
0.00476567
0.00456347
0.00456345
0.00456346
0.00456351
0.00456355
0.0045636
0.00456375
0.00456501
0.00457298
0.00436316
0.00436316
0.00436317
0.0043632
0.00436324
0.00436332
0.0043636
0.00436482
0.00437168
0.00415099
0.004151
0.00415101
0.00415102
0.00415106
0.00415114
0.00415149
0.00415339
0.00416342
0.00395329
0.0039533
0.00395331
0.00395332
0.00395337
0.0039535
0.00395403
0.00395671
0.00396986
0.00378319
0.0037832
0.00378321
0.00378322
0.00378327
0.00378341
0.00378392
0.0037865
0.00379881
0.00364515
0.00364515
0.00364516
0.00364517
0.00364521
0.00364533
0.00364579
0.00364798
0.00365815
0.00353899
0.003539
0.00353901
0.00353902
0.00353907
0.00353919
0.00353961
0.0035416
0.00355064
0.00346284
0.00346285
0.00346286
0.00346289
0.00346296
0.0034631
0.00346355
0.00346541
0.00347326
0.00341167
0.00341168
0.0034117
0.00341173
0.00341181
0.00341199
0.00341249
0.00341457
0.00342353
0.00339121
0.00339122
0.00339124
0.00339128
0.00339135
0.00339152
0.00339202
0.0033942
0.00340357
0.0063476
0.00629055
0.00623448
0.00617999
0.00612457
0.00606741
0.0060093
0.00595069
0.00589138
0.00583186
0.00577243
0.00571292
0.00565339
0.00559389
0.00553607
0.00547948
0.00542258
0.00536439
0.00530546
0.00635073
0.00629344
0.00623806
0.00618331
0.00612645
0.00606847
0.00600993
0.0059512
0.00589253
0.00583409
0.00577641
0.00571974
0.00566316
0.00560493
0.00554597
0.00548813
0.0054316
0.00537537
0.00531898
0.00641122
0.00635399
0.0062974
0.00624296
0.00618702
0.00612878
0.00606994
0.0060107
0.00595129
0.00589203
0.00583301
0.00577393
0.00571447
0.00565466
0.00559568
0.00553829
0.0054815
0.00542397
0.00536556
0.00641368
0.00635553
0.00629965
0.00624464
0.00618753
0.00612844
0.00606895
0.00600976
0.00595102
0.00589295
0.00583512
0.00577794
0.00572177
0.00566496
0.00560662
0.00554799
0.00549034
0.0054334
0.00537694
0.00647456
0.00641773
0.00636184
0.00630616
0.00624802
0.00618832
0.00612871
0.00606888
0.00600939
0.00595071
0.00589244
0.00583415
0.0057756
0.00571622
0.00565665
0.00559818
0.00554049
0.0054833
0.0054256
0.00647644
0.0064187
0.00636217
0.00630601
0.00624811
0.0061885
0.00612909
0.00606945
0.00600985
0.00595159
0.00589376
0.00583624
0.00577965
0.00572384
0.00566692
0.00560843
0.00554979
0.00549217
0.0054352
0.00653817
0.00648135
0.00642592
0.00636944
0.00630978
0.00624835
0.00618776
0.0061272
0.00606691
0.00600858
0.00595102
0.00589348
0.00583592
0.00577711
0.00571788
0.00565907
0.00560042
0.0055424
0.00548488
0.00653793
0.00648108
0.0064251
0.00636799
0.00630864
0.00624907
0.00619063
0.00613075
0.00607001
0.00601083
0.00595257
0.00589497
0.00583809
0.00578236
0.00572636
0.00566848
0.0056098
0.0055515
0.00549388
0.00660219
0.00654461
0.00648832
0.00643162
0.00637195
0.00631023
0.00624897
0.00618795
0.00612746
0.00606834
0.00600994
0.00595232
0.00589535
0.00583757
0.00577868
0.00571972
0.00566071
0.00560185
0.00554378
0.00659911
0.00654299
0.00648781
0.00643055
0.00637084
0.00631085
0.0062521
0.00619249
0.00613189
0.00607241
0.00601332
0.00595484
0.00589781
0.00584126
0.00578425
0.00572732
0.00566978
0.00561141
0.00555308
0.00666603
0.00660778
0.00655011
0.00649255
0.00643379
0.0063736
0.00631268
0.00625187
0.00619178
0.00613153
0.00607096
0.00601175
0.00595454
0.00589779
0.00583945
0.00577996
0.00572088
0.00566203
0.00560305
0.00666193
0.00660539
0.00654942
0.00649244
0.00643402
0.00637403
0.00631363
0.00625378
0.00619445
0.00613552
0.00607615
0.00601627
0.00595766
0.00589988
0.00584185
0.00578456
0.0057281
0.00567098
0.00561275
0.00672936
0.00667081
0.00661246
0.00655427
0.00649606
0.00643725
0.00637723
0.0063166
0.00625606
0.00619559
0.00613457
0.00607341
0.00601433
0.00595741
0.00589992
0.00584051
0.00578118
0.00572269
0.00566328
0.0067256
0.00666797
0.00661073
0.00655339
0.00649594
0.00643702
0.00637641
0.00631545
0.00625609
0.00619774
0.00613873
0.00607866
0.00601808
0.00595865
0.00590057
0.00584244
0.00578517
0.00572881
0.0056716
0.00679356
0.00673471
0.00667602
0.00661756
0.00655914
0.00650046
0.00644098
0.00638035
0.00631915
0.00625846
0.00619807
0.00613658
0.00607526
0.00601672
0.00595948
0.00590061
0.00584115
0.00578257
0.00572353
0.00678929
0.00673106
0.00667305
0.00661476
0.00655677
0.00649876
0.00643937
0.00637834
0.00631747
0.00625824
0.00619967
0.00614039
0.00607937
0.00601837
0.00595972
0.00590151
0.00584307
0.00578554
0.0057284
0.00685918
0.00679944
0.0067402
0.00668125
0.00662254
0.0065633
0.00650347
0.00644306
0.00638179
0.00632037
0.00625952
0.00619844
0.00613641
0.00607633
0.00601881
0.00596035
0.00590085
0.00584191
0.00578295
0.00685351
0.0067946
0.00673602
0.00667718
0.00661825
0.00655972
0.00650093
0.00644081
0.00637946
0.00631838
0.00625921
0.00620051
0.00614002
0.00607885
0.00601937
0.00596087
0.00590208
0.00584349
0.00578545
0.00692503
0.00686439
0.00680429
0.00674454
0.00668523
0.00662558
0.0065651
0.00650425
0.0064432
0.00638155
0.00631994
0.00625836
0.00619658
0.00613639
0.00607809
0.00601964
0.00596069
0.00590176
0.00584251
0.00691801
0.00685797
0.00679868
0.0067395
0.0066798
0.00661987
0.00656073
0.00650149
0.00644083
0.00637925
0.0063185
0.0062592
0.00619962
0.00613939
0.00607957
0.00602028
0.00596127
0.00590276
0.00584442
0.0069893
0.00692795
0.00686708
0.00680679
0.00674696
0.00668704
0.00662631
0.0065649
0.00650354
0.00644204
0.00638038
0.00631823
0.00625611
0.00619589
0.0061369
0.00607834
0.0060202
0.00596176
0.00590269
0.00698217
0.00692096
0.00686046
0.00680059
0.00674047
0.00668012
0.00662033
0.00656081
0.00650087
0.00643995
0.00637859
0.00631779
0.00625822
0.00619889
0.0061392
0.00607952
0.00602035
0.00596209
0.00590401
0.0070521
0.00698964
0.00692824
0.00686768
0.0068077
0.00674758
0.00668685
0.00662583
0.00656438
0.00650242
0.0064407
0.00637853
0.00631589
0.00625501
0.00619585
0.00613721
0.00607911
0.00602092
0.00596204
0.00704591
0.00698387
0.00692212
0.00686111
0.00680079
0.00674073
0.00668032
0.00661981
0.00655968
0.00649946
0.00643863
0.006377
0.0063162
0.00625694
0.00619803
0.00613884
0.00607947
0.00602089
0.00596295
0.00711615
0.00705194
0.00698954
0.00692816
0.0068675
0.00680733
0.00674688
0.00668626
0.00662516
0.00656294
0.0065009
0.00643854
0.00637559
0.00631412
0.00625463
0.00619588
0.0061374
0.00607902
0.00601986
0.00711029
0.00704723
0.00698445
0.00692242
0.0068613
0.00680053
0.00673992
0.0066792
0.0066183
0.00655797
0.00649757
0.00643642
0.00637508
0.00631507
0.0062564
0.0061976
0.00613825
0.00607928
0.0060211
0.00718301
0.00711665
0.00705219
0.00698923
0.00692753
0.00686683
0.00680661
0.00674603
0.0066848
0.00662309
0.0065609
0.00649796
0.00643485
0.00637329
0.0063135
0.00625412
0.00619507
0.00613646
0.00607735
0.00717617
0.00711112
0.00704725
0.0069843
0.00692159
0.00685983
0.0067993
0.00673878
0.00667755
0.00661628
0.00655594
0.00649565
0.00643496
0.00637436
0.00631445
0.00625532
0.00619624
0.00613729
0.00607868
0.0072513
0.00718315
0.00711649
0.00705155
0.00698832
0.00692665
0.00686619
0.00680578
0.00674448
0.00668273
0.0066205
0.00655722
0.00649394
0.00643267
0.00637298
0.00631301
0.00625298
0.00619368
0.00613443
0.00724238
0.00717579
0.00711094
0.00704713
0.00698313
0.0069201
0.00685893
0.0067982
0.00673697
0.00667545
0.00661443
0.00655391
0.00649374
0.00643325
0.00637254
0.00631249
0.00625329
0.00619466
0.00613584
0.00732003
0.00725035
0.00718245
0.00711568
0.00705024
0.00698728
0.00692616
0.00686582
0.0068049
0.00674279
0.00668014
0.00661671
0.00655283
0.0064909
0.00643136
0.00637189
0.00631131
0.00625069
0.00619029
0.00730918
0.00724155
0.00717555
0.00711079
0.00704636
0.00698223
0.00691933
0.00685777
0.00679662
0.00673529
0.00667349
0.00661211
0.00655143
0.00649097
0.00643033
0.00636964
0.00630971
0.00625098
0.0061924
0.00738901
0.00731843
0.00724985
0.007182
0.00711443
0.00704934
0.00698724
0.00692654
0.0068656
0.00680334
0.00674011
0.00667621
0.00661163
0.00654876
0.00648869
0.00642913
0.00636877
0.00630758
0.00624577
0.00737658
0.00730825
0.00724091
0.0071748
0.00711006
0.00704577
0.00698153
0.00691865
0.00685694
0.00679527
0.00673322
0.00667118
0.00660967
0.00654851
0.00648755
0.00642684
0.00636629
0.00630657
0.00624794
0.00745837
0.00738704
0.0073174
0.00724904
0.00718074
0.00711403
0.00704997
0.00698799
0.00692665
0.00686429
0.00680058
0.00673598
0.00667111
0.00660818
0.00654657
0.0064854
0.006425
0.00636393
0.00630204
0.00744393
0.00737596
0.00730745
0.00724023
0.0071748
0.00710996
0.00704535
0.00698125
0.00691804
0.00685569
0.00679313
0.00673064
0.00666866
0.00660644
0.00654437
0.00648394
0.00642351
0.00636271
0.00630301
0.00752794
0.00745623
0.00738626
0.00731681
0.00724832
0.00718054
0.00711416
0.00705045
0.00698857
0.00692619
0.0068618
0.00679591
0.006731
0.00666819
0.00660539
0.00654246
0.00648093
0.00641998
0.0063588
0.00751041
0.00744302
0.00737505
0.00730703
0.00724047
0.00717461
0.00710905
0.00704397
0.00697987
0.00691674
0.00685358
0.00679061
0.006728
0.00666473
0.00660182
0.00654132
0.00648138
0.00642036
0.00635929
0.00640074
0.00639448
0.00638256
0.00636868
0.00635613
0.00639235
0.00638326
0.0063738
0.00636584
0.00636071
0.00635882
0.00636003
0.00636189
0.00636306
0.00636404
0.00636579
0.00636925
0.00637239
0.00637515
0.00640754
0.00639792
0.00638738
0.00637619
0.00636149
0.00639548
0.00638812
0.00633657
0.00633163
0.00636841
0.00636657
0.00636597
0.0063659
0.0063674
0.00636929
0.0063706
0.00637238
0.00637471
0.00637806
0.00660352
0.00659294
0.00657838
0.00656245
0.00654583
0.00653243
0.00652006
0.00654801
0.00653202
0.00651848
0.0065063
0.00649621
0.00648632
0.00647618
0.006466
0.00645758
0.00645142
0.00644603
0.00644151
0.00662034
0.00660903
0.00659545
0.00657919
0.0065611
0.00654577
0.00653293
0.00651737
0.00650142
0.00652822
0.00651501
0.00650278
0.00649155
0.00648195
0.00647286
0.00646378
0.00645667
0.00645065
0.00644535
0.00681043
0.00679696
0.0067809
0.00676156
0.00673999
0.00672025
0.0067028
0.00667979
0.00665808
0.00667704
0.00665489
0.00663348
0.00661278
0.00659191
0.00657044
0.00655169
0.00653575
0.00652157
0.00650914
0.00683805
0.00682444
0.00680697
0.00678645
0.006765
0.0067433
0.00672169
0.00669854
0.00667553
0.00668989
0.00666467
0.00664189
0.00662016
0.00659987
0.00657953
0.0065597
0.00654164
0.00652561
0.00651217
0.00702052
0.00700352
0.00698444
0.00696266
0.00693775
0.00690948
0.00688168
0.00685313
0.00682406
0.00683287
0.00680092
0.00676951
0.00673895
0.0067073
0.00667633
0.00664856
0.00662303
0.00659975
0.00657825
0.00705817
0.00704087
0.00701993
0.00699612
0.00696995
0.00694145
0.0069114
0.00688011
0.00684817
0.00681615
0.00678363
0.00678326
0.00675039
0.00671933
0.00668787
0.00665714
0.00662838
0.00660246
0.00657908
0.00729899
0.00721935
0.00718965
0.00716202
0.00713263
0.00710011
0.00706592
0.00702988
0.00699077
0.00698835
0.00694713
0.00690605
0.00686449
0.0068224
0.00678253
0.00674636
0.00671161
0.00667829
0.0066472
0.00728356
0.00726158
0.00723541
0.0072068
0.00717526
0.00714017
0.00710164
0.00706116
0.0070199
0.00697926
0.00693762
0.00692507
0.00688065
0.0068373
0.00679522
0.00675551
0.00671803
0.00668171
0.00664613
0.00745424
0.00743191
0.00739745
0.00736353
0.00732717
0.00728895
0.0072481
0.00720256
0.00715498
0.00714419
0.00709351
0.0070426
0.00699108
0.00693965
0.00689082
0.00684522
0.0068
0.00675632
0.00671564
0.00750467
0.00748022
0.00744914
0.00741491
0.00737776
0.00733567
0.00728926
0.00724154
0.00719218
0.00714226
0.00709055
0.00706624
0.00700983
0.00695552
0.0069042
0.00685546
0.00680801
0.00676029
0.00671387
0.00765966
0.00763842
0.00760193
0.00756272
0.00752202
0.00747618
0.00742578
0.00737433
0.00732001
0.00729887
0.00723849
0.00717838
0.00711859
0.0070575
0.00699842
0.00694217
0.0068869
0.00683388
0.00678376
0.00772564
0.00770151
0.00766618
0.00762383
0.00757782
0.00752867
0.00747513
0.00742023
0.00736274
0.00730289
0.00724203
0.00720478
0.00713907
0.00707633
0.00701481
0.00695471
0.00689542
0.00683757
0.00678242
0.00787202
0.00784524
0.00780557
0.00776246
0.00771614
0.00766249
0.00760607
0.00754694
0.00748391
0.0074191
0.00735262
0.0073127
0.00724379
0.00717369
0.00710513
0.00703873
0.00697427
0.00691199
0.00685256
0.00794509
0.00791745
0.00788035
0.00783392
0.00777942
0.00772107
0.00765895
0.00759535
0.00752845
0.0074596
0.00738999
0.00734049
0.00726781
0.00719641
0.00712396
0.00705153
0.00698104
0.00691446
0.0068508
0.00808186
0.00805666
0.00801747
0.00796615
0.00790534
0.00784388
0.007777
0.00771013
0.00764053
0.00756892
0.00749472
0.0074432
0.00736514
0.00728801
0.00721193
0.00713685
0.00706307
0.00699124
0.00692297
0.00816625
0.00813641
0.00809372
0.00804261
0.00798003
0.00791099
0.00783942
0.00776614
0.0076893
0.00761281
0.00753372
0.00747443
0.00739296
0.00731109
0.00722832
0.00714605
0.00706681
0.00699138
0.00691918
0.00829775
0.00826783
0.00822644
0.00816699
0.00809733
0.00803003
0.0079547
0.00787539
0.0077956
0.007715
0.00763453
0.00757034
0.00748378
0.00739987
0.00731669
0.00723348
0.00715055
0.00706991
0.00699347
0.00839142
0.00835859
0.00831005
0.00824863
0.00817758
0.008101
0.00802072
0.00793685
0.00784981
0.007763
0.00767497
0.00760487
0.00751266
0.00742085
0.00733007
0.00724115
0.0071537
0.00706889
0.00698828
0.00851415
0.00848228
0.0084293
0.00836498
0.00829578
0.00821165
0.00812224
0.0080378
0.00794902
0.00785838
0.00776813
0.00769468
0.00760005
0.00750739
0.00741613
0.00732558
0.00723465
0.00714584
0.0070618
0.00862199
0.00858371
0.00852705
0.00845454
0.00837575
0.00829092
0.00819811
0.00810337
0.00800802
0.00791104
0.0078134
0.00773001
0.00762926
0.0075299
0.00743228
0.0073367
0.00724088
0.00714684
0.00705735
0.00874314
0.00869938
0.0086396
0.00856841
0.0084853
0.00838739
0.00829091
0.00819601
0.00809789
0.00799763
0.00789771
0.00781376
0.00771121
0.00761017
0.00751153
0.00741537
0.00731776
0.00722108
0.00712912
0.00885631
0.00880931
0.00874559
0.00866604
0.00857545
0.00847862
0.00837276
0.00826707
0.00816117
0.00805429
0.0079462
0.00785065
0.00774325
0.0076375
0.00753308
0.00743045
0.00732694
0.0072242
0.00712561
0.00898759
0.00893149
0.00886161
0.00877359
0.00867986
0.00856953
0.0084566
0.00835156
0.00823949
0.00813046
0.00802082
0.00792564
0.00781837
0.00771204
0.00760718
0.00750487
0.00740145
0.00729827
0.00719838
0.0091112
0.00905326
0.00897514
0.00888025
0.00877632
0.00866657
0.00854702
0.00842608
0.00830779
0.00819146
0.00807336
0.00796716
0.0078525
0.00774063
0.00763094
0.00752125
0.00741109
0.00730121
0.00719453
0.00924249
0.00917499
0.00909495
0.00897959
0.0088682
0.00874456
0.00861989
0.00850085
0.00837571
0.008257
0.00813755
0.008034
0.00792186
0.00781098
0.00770083
0.00759194
0.00748401
0.00737622
0.00726982
0.00937784
0.00930476
0.00920902
0.00909545
0.0089722
0.0088439
0.00871125
0.00857853
0.0084487
0.00832247
0.00819389
0.00807702
0.00795485
0.00783722
0.00772315
0.00760764
0.00749244
0.00737799
0.00726523
0.00952415
0.00942773
0.00931619
0.00918238
0.00905559
0.00891477
0.00877713
0.00864127
0.00850247
0.00837411
0.00824837
0.00813669
0.00801707
0.00790135
0.00778833
0.00767589
0.00756408
0.0074524
0.00734145
0.00965448
0.00956034
0.00944241
0.00930577
0.00916042
0.00901469
0.00886883
0.00872281
0.00857908
0.00844271
0.00830603
0.00818004
0.00805104
0.00792709
0.00780803
0.00768913
0.00757013
0.0074523
0.00733543
0.00976586
0.00965975
0.00953518
0.00938191
0.00921881
0.00906812
0.00891814
0.00876797
0.00861937
0.00848334
0.00835246
0.00823102
0.0081046
0.0079844
0.00786947
0.00775557
0.00764054
0.0075258
0.00741234
0.00990396
0.00979883
0.00965847
0.00949591
0.00933382
0.00917283
0.00900895
0.00885144
0.00869736
0.00855256
0.00841185
0.00827632
0.00814169
0.00801194
0.00788834
0.00776743
0.00764481
0.00752311
0.00740381
0.00995863
0.00983849
0.00969888
0.00953698
0.00937134
0.00920223
0.00903468
0.00887526
0.00872307
0.00858449
0.00844803
0.00831775
0.00818845
0.00806448
0.00794614
0.00782989
0.0077132
0.00759675
0.00748227
0.0100961
0.00997594
0.00982836
0.0096581
0.00948191
0.00930674
0.00913289
0.00896414
0.00880233
0.00865378
0.00850807
0.00836329
0.00822596
0.00809286
0.00796567
0.00784231
0.00771705
0.00759204
0.0074714
0.0100788
0.00994803
0.00980886
0.00964606
0.00948666
0.00931648
0.00914074
0.00897667
0.00882236
0.0086748
0.00853256
0.00839744
0.00826664
0.00814125
0.00801959
0.00790122
0.00778425
0.00766727
0.00755195
0.0102058
0.0100778
0.00993796
0.00976945
0.00959205
0.00941507
0.00923877
0.0090641
0.00889649
0.0087422
0.00859264
0.00844201
0.00830259
0.00816849
0.00803835
0.00791294
0.00778779
0.00766128
0.00753854
0.0100952
0.00998013
0.00986287
0.00970913
0.00956092
0.00939599
0.00922545
0.00906359
0.00890789
0.00875031
0.00860547
0.00846833
0.0083358
0.0082107
0.00808859
0.00796946
0.00785321
0.00773793
0.00762211
0.0102263
0.0101095
0.0099803
0.00982676
0.00966432
0.00949347
0.00932261
0.00914793
0.00897834
0.0088071
0.00865592
0.00851182
0.00837065
0.00823682
0.00810532
0.00797915
0.00785573
0.00773042
0.00760562
0.00624883
0.0062939
0.00628264
0.00627044
0.00626032
0.00620803
0.00620534
0.00620522
0.00620761
0.00621249
0.00621982
0.00623019
0.00624155
0.00625341
0.00626567
0.00627738
0.00628869
0.00629961
0.00631006
0.00610789
0.00609494
0.00608565
0.00607864
0.00607691
0.00603511
0.00604077
0.00605023
0.00606249
0.00607647
0.00609292
0.00611155
0.00613096
0.00615209
0.00617396
0.00619391
0.00621271
0.00623117
0.00624924
0.00591142
0.00590458
0.00590016
0.00590151
0.0059045
0.00587353
0.00588818
0.00590626
0.00592634
0.00594847
0.00597296
0.00599883
0.00602604
0.00605479
0.00608397
0.00611177
0.00613824
0.00616431
0.00619004
0.00572378
0.00571989
0.00572366
0.00573229
0.00570264
0.00572178
0.00574366
0.0057683
0.00579443
0.0058237
0.00585574
0.0058887
0.0059228
0.00595884
0.00599556
0.00603102
0.0060652
0.0060984
0.00613136
0.00554344
0.0055467
0.00555571
0.00557054
0.00555071
0.00557658
0.00560406
0.00563364
0.00566552
0.00570059
0.00573959
0.00578031
0.00582134
0.00586455
0.0059086
0.00595128
0.00599283
0.00603255
0.00607194
0.00537229
0.00537742
0.00534932
0.00537592
0.00540449
0.00543663
0.00547008
0.00550438
0.00554151
0.00558173
0.00562676
0.00567436
0.00572198
0.0057713
0.00582218
0.00587216
0.00592017
0.00596635
0.00601231
0.00520543
0.00521464
0.00523821
0.00527052
0.00526295
0.00530091
0.00533987
0.00537936
0.00542112
0.00546736
0.00551851
0.00557119
0.00562393
0.00567948
0.00573747
0.00579407
0.00584763
0.00589935
0.00595137
0.00503182
0.00505244
0.00508517
0.00512402
0.00512387
0.00516735
0.0052117
0.00525718
0.00530416
0.00535648
0.00541318
0.00547043
0.00552813
0.00558874
0.00565213
0.0057147
0.00577395
0.00583102
0.00588936
0.00486163
0.00489223
0.00493151
0.00497745
0.00498314
0.00503329
0.00508404
0.00513637
0.00519017
0.00524784
0.00530922
0.00537095
0.00543311
0.00549743
0.00556474
0.00563249
0.00569811
0.00576223
0.00582718
0.00468517
0.00472404
0.00477038
0.00482515
0.00488057
0.00493696
0.00495576
0.00501553
0.00507734
0.00514025
0.00520567
0.00527185
0.00533888
0.00540743
0.005478
0.00555037
0.0056225
0.00569359
0.0057648
0.00450633
0.00455502
0.0046102
0.00467283
0.00473487
0.00479967
0.00482603
0.00489339
0.0049622
0.00503121
0.00510135
0.00517299
0.00524614
0.0053194
0.00539355
0.00547049
0.00554895
0.00562624
0.0057028
0.00431672
0.00437611
0.00444049
0.00451293
0.00458798
0.00466042
0.00472956
0.00480029
0.00484502
0.00492173
0.004998
0.00507578
0.0051551
0.00523346
0.00531222
0.00539421
0.00547799
0.00556026
0.00564121
0.00412884
0.00418906
0.00425863
0.00429674
0.00443521
0.00451384
0.00459354
0.00467394
0.00473106
0.00481565
0.00489895
0.00498312
0.00506787
0.00515196
0.00523631
0.00532215
0.00540917
0.00549524
0.00558003
0.00395858
0.00401449
0.00409139
0.00417953
0.00428498
0.004378
0.00446861
0.00453299
0.00462566
0.0047166
0.00480691
0.00489736
0.00498698
0.00507616
0.0051651
0.00525345
0.00534248
0.00543166
0.00551973
0.00381819
0.00386937
0.00394226
0.00403953
0.00415145
0.00425796
0.00435665
0.00443323
0.00453219
0.00462771
0.00472287
0.00481795
0.00491206
0.0050052
0.00509693
0.00518769
0.00527849
0.00536996
0.00546099
0.00371714
0.00375741
0.00383136
0.00392679
0.00403495
0.00415351
0.00426162
0.0043467
0.00444942
0.00454872
0.00464714
0.00474477
0.00484223
0.00493843
0.00503226
0.00512475
0.00521703
0.00530992
0.0054031
0.00363112
0.00367574
0.0037513
0.00384408
0.00394723
0.00406206
0.00417909
0.00427212
0.0043771
0.00447882
0.0045797
0.00467887
0.00477769
0.00487603
0.00497185
0.00506539
0.00515827
0.00525138
0.00534506
0.00359224
0.00362465
0.00369014
0.00378425
0.00388988
0.00399887
0.00411074
0.00420985
0.00431666
0.00441873
0.00452012
0.00462039
0.00471932
0.00481815
0.00491517
0.00500915
0.00510183
0.00519447
0.00528731
0.0035699
0.00360392
0.0036604
0.00373614
0.00383972
0.0039554
0.00406024
0.00416105
0.00426815
0.0043696
0.00446915
0.00456902
0.00466754
0.00476488
0.00486158
0.0049559
0.00504768
0.00513892
0.00523016
0.0063019
0.00629297
0.00628356
0.00621978
0.00626268
0.00625444
0.00620205
0.00620328
0.0062084
0.00621458
0.00622315
0.00623337
0.00624425
0.00625747
0.0062703
0.00628053
0.00629087
0.00630202
0.00631327
0.00609518
0.00608714
0.00607916
0.00607314
0.00607092
0.00607133
0.00602948
0.00604015
0.00605575
0.00607248
0.00609072
0.00611036
0.00613125
0.00615419
0.00617609
0.00619599
0.00621573
0.00623509
0.00625347
0.00588992
0.00588501
0.00588208
0.0058829
0.00588834
0.00589831
0.00586993
0.00588939
0.00591212
0.00593746
0.00596475
0.00599278
0.0060221
0.00605316
0.00608366
0.00611284
0.00614093
0.00616796
0.00619428
0.0056935
0.00569156
0.00569482
0.005704
0.0057173
0.00573567
0.00571871
0.00574524
0.00577373
0.00580592
0.00584167
0.00587765
0.00591481
0.0059537
0.00599239
0.00602964
0.00606569
0.00610067
0.00613502
0.00550368
0.00550739
0.00551779
0.00553413
0.00555571
0.00558182
0.00557176
0.00560434
0.00563879
0.00567686
0.00572067
0.00576507
0.00580883
0.00585509
0.00590202
0.00594725
0.00599119
0.00603375
0.00607507
0.0053197
0.00532973
0.00534735
0.00537249
0.00540125
0.00543369
0.00543137
0.00546891
0.00550894
0.00555351
0.0056041
0.00565517
0.00570525
0.0057588
0.00581334
0.00586584
0.00591712
0.00596674
0.00601462
0.00514209
0.00515881
0.00518298
0.0052169
0.00521222
0.00525308
0.00529502
0.00533818
0.00538419
0.00543561
0.0054916
0.00554739
0.00560436
0.0056656
0.00572711
0.0057857
0.00584293
0.00589887
0.00595315
0.00496501
0.00498762
0.00502075
0.00506221
0.0051049
0.00514924
0.00516049
0.00521067
0.0052628
0.00532049
0.00538174
0.00544222
0.00550497
0.00557213
0.00563986
0.00570453
0.00576773
0.00583027
0.00589116
0.00478577
0.00481613
0.00485737
0.00490693
0.00495724
0.00500858
0.00502766
0.00508493
0.00514323
0.00520702
0.00527347
0.00533866
0.00540576
0.00547688
0.00554992
0.00562136
0.00569171
0.00576093
0.00582868
0.00459972
0.00463868
0.00468892
0.00474756
0.00480673
0.00486708
0.00492711
0.00498832
0.00502484
0.005094
0.00516479
0.00523518
0.00530755
0.00538339
0.00546089
0.00553851
0.00561581
0.00569158
0.00576645
0.0044055
0.00445711
0.00451701
0.00458409
0.00465263
0.0047234