/*--------------------------------*- C++ -*----------------------------------*\
| =========                 |                                                 |
| \\      /  F ield         | foam-extend: Open Source CFD                    |
|  \\    /   O peration     | Version:     3.1                                |
|   \\  /    A nd           | Web:         http://www.extend-project.de       |
|    \\/     M anipulation  |                                                 |
\*---------------------------------------------------------------------------*/
FoamFile
{
    version     2.0;
    format      ascii;
    class       volScalarField;
    location    "345600";
    object      Y;
}
// * * * * * * * * * * * * * * * * * * * * * * * * * * * * * * * * * * * * * //

dimensions      [0 1 0 0 0 0 0];

internalField   nonuniform List<scalar> 
23248
(
0.00558776
0.00569892
0.00581008
0.00592129
0.00603265
0.00614435
0.00625692
0.00637174
0.00649451
0.00558777
0.00569895
0.00581018
0.00592155
0.00603324
0.00614572
0.00626021
0.00637997
0.00651331
0.00558776
0.00569892
0.00581008
0.0059213
0.00603266
0.00614435
0.00625693
0.00637181
0.00649474
0.00558776
0.00569895
0.00581018
0.00592155
0.00603324
0.00614572
0.00626024
0.0063801
0.00651388
0.00558777
0.00569891
0.00581008
0.00592129
0.00603265
0.00614435
0.00625691
0.00637168
0.00649423
0.00558777
0.00569895
0.00581019
0.00592155
0.00603324
0.00614572
0.00626021
0.00637989
0.00651295
0.00558777
0.00569892
0.00581008
0.0059213
0.00603265
0.00614434
0.00625686
0.00637158
0.00649391
0.00558777
0.00569896
0.00581019
0.00592155
0.00603324
0.0061457
0.0062601
0.0063796
0.0065124
0.00558777
0.00569892
0.00581008
0.0059213
0.00603266
0.00614435
0.00625686
0.00637142
0.00649293
0.00558777
0.00569896
0.0058102
0.00592157
0.00603328
0.00614577
0.00626022
0.00637965
0.00651185
0.00558777
0.00569892
0.00581009
0.00592132
0.00603269
0.00614441
0.00625703
0.00637196
0.00649429
0.00558776
0.00569897
0.00581021
0.00592159
0.00603332
0.00614589
0.00626051
0.00638044
0.00651355
0.00558777
0.00569892
0.00581009
0.00592133
0.00603273
0.00614451
0.00625725
0.00637238
0.00649558
0.00558777
0.00569897
0.00581023
0.00592163
0.0060334
0.00614605
0.00626085
0.00638114
0.00651541
0.00558778
0.00569893
0.0058101
0.00592134
0.00603273
0.00614452
0.00625722
0.00637234
0.00649512
0.00558777
0.00569898
0.00581024
0.00592166
0.00603346
0.00614617
0.0062611
0.00638165
0.00651623
0.00558777
0.00569892
0.0058101
0.00592136
0.00603278
0.00614463
0.00625752
0.0063729
0.00649653
0.00558777
0.00569899
0.00581026
0.0059217
0.00603355
0.00614639
0.00626165
0.00638289
0.00651909
0.00558778
0.00569893
0.00581012
0.00592138
0.00603282
0.00614466
0.00625764
0.00637368
0.00649811
0.00558778
0.00569899
0.00581028
0.00592175
0.00603365
0.00614655
0.00626204
0.00638385
0.00652068
0.00558777
0.00569894
0.00581014
0.00592144
0.00603296
0.00614507
0.00629066
0.00637409
0.00649945
0.00558779
0.00569902
0.00581033
0.00592187
0.00603393
0.00614711
0.00626255
0.006385
0.00652343
0.00558778
0.00569895
0.00581016
0.00592147
0.00603302
0.00614513
0.00625866
0.00637552
0.00650185
0.00558779
0.00569904
0.00581037
0.00592193
0.00603403
0.00614734
0.00626349
0.00638683
0.00652725
0.00558777
0.00569896
0.00581018
0.00592152
0.00603312
0.00614532
0.00625896
0.00637609
0.00650407
0.00558779
0.00569905
0.00581042
0.00592203
0.00603425
0.00614784
0.00626473
0.00638949
0.00653271
0.00558778
0.00569897
0.00581021
0.00592159
0.00603327
0.00614564
0.00625963
0.00637766
0.00650847
0.00558779
0.00569908
0.00581048
0.00592219
0.00603458
0.00614856
0.00626621
0.00639261
0.00653851
0.00558777
0.00569899
0.00581025
0.00592167
0.00603345
0.00614602
0.00626044
0.0063796
0.00651421
0.00558778
0.0056991
0.00581055
0.00592234
0.00603491
0.00614925
0.00626768
0.00639582
0.0065458
0.00558776
0.005699
0.00581029
0.00592176
0.00603362
0.00614638
0.00626118
0.00638137
0.00651888
0.00558778
0.00569913
0.00581063
0.0059225
0.00603523
0.0061499
0.00626903
0.00639875
0.00655229
0.00558777
0.00569902
0.00581033
0.00592184
0.00603379
0.00614671
0.00626187
0.00638297
0.00652354
0.00558779
0.00569917
0.00581071
0.00592267
0.00603558
0.00615062
0.0062705
0.00640156
0.00655674
0.00558777
0.00569904
0.00581037
0.00592193
0.00603398
0.00614712
0.00626279
0.00638522
0.00652992
0.00558779
0.0056992
0.00581077
0.00592279
0.00603582
0.00615113
0.00627164
0.0064043
0.0065635
0.00558778
0.00569903
0.00581036
0.00592188
0.00603386
0.00614682
0.00626204
0.00638318
0.00652511
0.0055878
0.0056992
0.00581079
0.00592283
0.00603589
0.00615121
0.00627165
0.00640406
0.00656353
0.00558777
0.00569892
0.00581008
0.0059213
0.00603266
0.00614435
0.00625694
0.00637179
0.00649461
0.00558777
0.00569891
0.00581007
0.00592133
0.00606115
0.00614448
0.00625738
0.00640901
0.00655612
0.00561558
0.00572672
0.00581013
0.00592132
0.00603272
0.00617391
0.00628903
0.00637366
0.00649909
0.00558777
0.00569894
0.00581012
0.00592133
0.00603274
0.00614461
0.00625766
0.0063735
0.00649953
0.00558777
0.00569892
0.00581008
0.00592133
0.00603275
0.00614459
0.00625751
0.00637331
0.00649918
0.00558778
0.00569893
0.00581011
0.00592136
0.00603279
0.0061447
0.00625779
0.00637396
0.00650086
0.00558778
0.00569893
0.00581012
0.00592137
0.00603285
0.00614482
0.00625806
0.00637465
0.00650233
0.00558778
0.00569893
0.00581011
0.00592137
0.00603283
0.00614477
0.00625788
0.00637405
0.00650053
0.00558777
0.00569893
0.00581012
0.0059214
0.00603292
0.00614497
0.00625832
0.00637502
0.00650339
0.00558778
0.00569894
0.00581013
0.00592142
0.00603292
0.00614495
0.00625824
0.00637472
0.00650199
0.00558777
0.00569894
0.00581015
0.00592146
0.00603301
0.00614514
0.00625864
0.00637568
0.00650505
0.00558778
0.00569895
0.00581017
0.00592149
0.00603309
0.0061453
0.006259
0.00637652
0.00650702
0.00558777
0.00569896
0.00581019
0.00592154
0.00603319
0.00614548
0.00625932
0.00637705
0.00650753
0.00558778
0.00569897
0.0058102
0.00592156
0.00603322
0.00614552
0.00625927
0.00637663
0.00650557
0.00558778
0.00569898
0.00581023
0.00592162
0.00603331
0.00614568
0.00625957
0.00637713
0.00650591
0.00558778
0.00569899
0.00581026
0.00592168
0.00603344
0.00614594
0.00626008
0.00637817
0.00650804
0.00558778
0.005699
0.00581029
0.00592174
0.00603354
0.00614614
0.00626046
0.00637884
0.00650852
0.00558778
0.00569901
0.00581031
0.00592177
0.0060336
0.00614622
0.00626057
0.00637899
0.0065092
0.00558778
0.00569902
0.00581031
0.00592179
0.00603363
0.00614627
0.00626063
0.00637907
0.00650922
0.00558778
0.00569896
0.00581018
0.00592156
0.00603326
0.00614576
0.00626031
0.00638015
0.00651384
0.00558779
0.00569896
0.0058102
0.00592162
0.00603334
0.006146
0.00626101
0.00638104
0.00651438
0.00558777
0.00569899
0.00581026
0.00592163
0.00603337
0.00614598
0.00626092
0.00638196
0.006518
0.00558778
0.00569899
0.00581022
0.00592161
0.00603342
0.0061462
0.00626144
0.00638323
0.0065217
0.00558779
0.00569897
0.00581022
0.00592163
0.00603347
0.00614632
0.00626174
0.00638376
0.00652238
0.00558778
0.00569898
0.00581025
0.0059217
0.00603357
0.00614654
0.00626225
0.00638505
0.00652615
0.00558779
0.00569899
0.00581026
0.00592173
0.00603366
0.00614673
0.00626266
0.00638592
0.00652719
0.00558779
0.00569899
0.00581027
0.00592174
0.0060337
0.0061468
0.00626272
0.00638563
0.00652534
0.00558778
0.005699
0.00581028
0.00592177
0.00603376
0.00614695
0.00626299
0.00638613
0.00652529
0.00558779
0.00569901
0.00581032
0.00592185
0.00603391
0.00614722
0.00626358
0.00638735
0.00652717
0.00558779
0.00569902
0.00581034
0.0059219
0.006034
0.0061474
0.00626394
0.00638815
0.00652925
0.00558779
0.00569903
0.00581037
0.00592195
0.00603412
0.00614766
0.00626449
0.00638927
0.0065318
0.00558778
0.00569904
0.0058104
0.00592203
0.00603427
0.00614791
0.00626484
0.00638956
0.0065313
0.00558779
0.00569906
0.00581045
0.00592211
0.0060344
0.00614811
0.00626504
0.0063894
0.00652989
0.00558779
0.00569909
0.0058105
0.00592222
0.0060346
0.00614847
0.00626568
0.00639051
0.00653187
0.0055878
0.00569912
0.00581057
0.00592236
0.00603488
0.00614904
0.00626679
0.00639265
0.00653582
0.0055878
0.00569914
0.00581063
0.00592248
0.00603512
0.00614949
0.00626763
0.00639417
0.00653825
0.0055878
0.00569916
0.00581066
0.00592253
0.00603521
0.0061496
0.00626775
0.0063942
0.00653806
0.00558779
0.00569917
0.00581069
0.0059226
0.00603533
0.00614982
0.00626813
0.00639482
0.00653888
0.00829414
0.00830448
0.00831203
0.00831761
0.00832118
0.00832274
0.0083213
0.00831681
0.00830839
0.00829629
0.00828088
0.00826284
0.00824292
0.00822089
0.00819762
0.00817258
0.00814602
0.00811836
0.00808971
0.00838547
0.00839269
0.00839802
0.00840247
0.00840447
0.0084044
0.00840149
0.00839575
0.00838746
0.00837627
0.00836198
0.00834555
0.00832742
0.00830671
0.00828376
0.00825959
0.0082343
0.00820842
0.00818225
0.00832437
0.00833295
0.00833894
0.00834369
0.00834634
0.00834662
0.00834433
0.00833883
0.00833048
0.00831918
0.00830429
0.00828614
0.00826566
0.00824383
0.00822103
0.00819725
0.0081721
0.00814468
0.00811619
0.00841223
0.00841859
0.0084224
0.00842543
0.00842688
0.00842573
0.00842178
0.00841549
0.0084075
0.00839729
0.00838296
0.00836559
0.00834759
0.00832836
0.00830684
0.0082834
0.00825899
0.00823364
0.00820707
0.00835102
0.00835888
0.0083641
0.00836716
0.00836805
0.00836722
0.00836424
0.00835819
0.00834987
0.00833943
0.00832569
0.00830782
0.00828716
0.00826571
0.00824388
0.00822141
0.00819701
0.00817044
0.0081428
0.00843559
0.00844178
0.00844506
0.00844647
0.00844671
0.00844484
0.00844075
0.00843469
0.0084264
0.00841627
0.00840267
0.00838507
0.00836699
0.00834931
0.00832911
0.00830629
0.00828238
0.00825769
0.00823169
0.00837446
0.00838175
0.00838657
0.00838835
0.00838768
0.00838585
0.00838227
0.00837558
0.00836668
0.00835659
0.00834387
0.00832721
0.00830773
0.00828658
0.00826547
0.00824458
0.00822126
0.00819554
0.00816875
0.00845545
0.00846131
0.00846445
0.0084652
0.00846435
0.00846187
0.0084581
0.00845264
0.00844396
0.00843292
0.00842004
0.00840422
0.00838692
0.0083697
0.0083505
0.0083283
0.00830468
0.00828078
0.00825597
0.00839428
0.00840057
0.00840472
0.00840642
0.00840531
0.0084025
0.00839838
0.00839131
0.00838224
0.00837194
0.00835916
0.00834438
0.00832747
0.00830774
0.00828628
0.00826506
0.00824327
0.00821889
0.00819288
0.00847227
0.00847759
0.00848047
0.00848137
0.00848059
0.00847778
0.00847361
0.00846788
0.00845937
0.00844828
0.00843572
0.00842175
0.00840571
0.00838832
0.00836968
0.00834909
0.00832666
0.00830292
0.00827847
0.00841125
0.00841644
0.00841957
0.00842092
0.00841991
0.00841681
0.00841221
0.00840553
0.00839703
0.00838643
0.00837324
0.00835917
0.00834458
0.00832763
0.00830703
0.00828459
0.00826264
0.00823995
0.00821516
0.00848752
0.00849214
0.00849461
0.00849479
0.00849399
0.00849182
0.00848699
0.00848027
0.00847197
0.00846175
0.00844997
0.00843659
0.00842185
0.00840531
0.00838684
0.00836765
0.00834699
0.0083237
0.00829942
0.0084254
0.00842954
0.00843164
0.00843232
0.00843143
0.00842874
0.00842413
0.00841743
0.00840941
0.00839938
0.00838678
0.00837297
0.00835889
0.00834379
0.00832593
0.0083045
0.00828199
0.0082598
0.00823608
0.00850096
0.00850466
0.00850635
0.00850598
0.00850468
0.0085029
0.00849843
0.00849089
0.00848248
0.00847296
0.00846201
0.00844959
0.00843579
0.00842041
0.00840311
0.00838433
0.00836448
0.00834276
0.0083197
0.00843652
0.00844031
0.00844198
0.0084421
0.0084405
0.00843762
0.00843358
0.00842723
0.00841908
0.00840992
0.0083992
0.00838649
0.00837213
0.00835724
0.00834112
0.00832202
0.00830081
0.00827869
0.00825566
0.00851173
0.00851449
0.00851565
0.00851576
0.00851369
0.00851058
0.00850686
0.00850037
0.00849171
0.00848219
0.00847206
0.00846092
0.00844803
0.00843338
0.00841719
0.00839914
0.00837983
0.00835961
0.00833829
0.00844531
0.00844928
0.00845081
0.00845051
0.00844836
0.00844471
0.00844064
0.00843542
0.00842768
0.0084188
0.00840952
0.00839817
0.00838458
0.00836981
0.00835375
0.00833613
0.00831686
0.00829596
0.00827383
0.00851979
0.00852232
0.00852351
0.00852373
0.00852145
0.00851681
0.00851235
0.00850748
0.00849999
0.00849066
0.00848097
0.00847054
0.00845896
0.00844536
0.0084293
0.00841181
0.00839387
0.00837503
0.00835461
0.00845237
0.00845631
0.00845749
0.00845703
0.00845465
0.00845077
0.00844661
0.00844166
0.008435
0.00842654
0.00841737
0.008407
0.00839483
0.00838129
0.00836567
0.00834858
0.00833055
0.00831103
0.00828965
0.00852588
0.00852863
0.00852953
0.00852939
0.00852738
0.0085228
0.00851753
0.00851231
0.0085064
0.00849873
0.00848935
0.00847895
0.00846789
0.00845565
0.00844094
0.00842417
0.00840687
0.00838886
0.00836899
0.0084577
0.00846155
0.00846278
0.008462
0.00845928
0.00845585
0.00845197
0.00844705
0.00844078
0.00843296
0.00842417
0.00841407
0.00840268
0.00839035
0.00837598
0.00835961
0.00834228
0.00832339
0.00830222
0.00853064
0.00853358
0.00853433
0.00853376
0.0085314
0.00852753
0.00852316
0.00851774
0.00851163
0.00850507
0.00849683
0.00848656
0.00847537
0.00846374
0.00845086
0.00843559
0.00841836
0.00840013
0.00838063
0.00846121
0.00846566
0.00846751
0.00846637
0.00846348
0.00846036
0.00845675
0.00845259
0.00844705
0.00843947
0.00843091
0.00842126
0.00841017
0.0083981
0.00838455
0.00836887
0.00835182
0.00833303
0.0083119
0.00853409
0.00853753
0.00853848
0.00853748
0.0085348
0.0085315
0.00852821
0.00852387
0.00851759
0.00851035
0.00850294
0.00849364
0.00848276
0.00847114
0.00845854
0.00844444
0.0084278
0.00840922
0.00838977
0.00846344
0.00846856
0.00847089
0.00847017
0.00846756
0.00846448
0.00846112
0.00845756
0.00845303
0.00844589
0.00843743
0.00842849
0.00841761
0.00840527
0.00839171
0.00837619
0.00835898
0.00833997
0.00831891
0.00853657
0.00854062
0.00854207
0.00854094
0.0085383
0.00853522
0.00853196
0.0085285
0.00852356
0.00851635
0.00850841
0.00849985
0.00848993
0.0084785
0.00846552
0.00845148
0.00843524
0.00841664
0.00839701
0.00846449
0.0084699
0.00847259
0.00847259
0.00847086
0.00846811
0.0084649
0.00846147
0.00845698
0.00845079
0.00844308
0.00843399
0.0084231
0.0084107
0.00839683
0.00838108
0.00836382
0.00834475
0.00832336
0.00853781
0.00854237
0.00854458
0.00854372
0.00854102
0.00853788
0.00853476
0.00853175
0.00852794
0.00852195
0.00851405
0.00850518
0.00849544
0.00848434
0.00847108
0.00845644
0.00844043
0.0084222
0.00840232
0.00846355
0.00846924
0.00847286
0.0084737
0.00847242
0.00847027
0.00846757
0.00846424
0.00845995
0.00845441
0.00844709
0.00843776
0.0084265
0.00841398
0.00840009
0.0083839
0.0083663
0.00834723
0.00832535
0.00853716
0.00854225
0.00854537
0.00854554
0.00854267
0.00853938
0.00853688
0.00853418
0.00853068
0.00852577
0.00851882
0.00850962
0.00849926
0.00848791
0.00847456
0.00845939
0.008443
0.00842515
0.00840531
0.00846061
0.00846711
0.00847201
0.0084737
0.00847222
0.00847048
0.00846872
0.00846579
0.00846189
0.00845668
0.00844966
0.00844043
0.00842889
0.00841602
0.00840164
0.00838516
0.00836675
0.00834655
0.00832419
0.00853468
0.0085402
0.00854421
0.00854615
0.00854458
0.00854105
0.00853808
0.00853554
0.00853217
0.00852779
0.00852154
0.00851267
0.00850217
0.00849009
0.00847639
0.00846126
0.00844388
0.00842513
0.00840531
0.00845634
0.00846388
0.00846984
0.00847262
0.00847181
0.00846997
0.00846858
0.00846635
0.00846248
0.00845744
0.00845089
0.00844195
0.0084302
0.0084165
0.0084012
0.00838434
0.0083652
0.00834354
0.00832019
0.0085302
0.00853657
0.00854151
0.00854458
0.00854551
0.00854321
0.00853924
0.00853621
0.0085329
0.00852852
0.00852269
0.00851436
0.008504
0.00849139
0.00847675
0.00846114
0.00844324
0.00842304
0.00840209
0.00845102
0.00845845
0.00846504
0.00846944
0.00847055
0.00846941
0.00846777
0.00846549
0.00846166
0.00845674
0.00845036
0.00844152
0.0084296
0.00841526
0.00839907
0.00838111
0.00836117
0.00833855
0.00831407
0.00852456
0.00853149
0.00853729
0.00854161
0.00854408
0.00854375
0.00854063
0.00853665
0.00853278
0.00852844
0.00852264
0.00851449
0.008504
0.00849116
0.00847576
0.00845892
0.00844043
0.00841954
0.00839718
0.0084442
0.0084508
0.00845771
0.00846337
0.00846597
0.00846622
0.00846488
0.00846239
0.00845882
0.00845409
0.00844769
0.00843847
0.00842644
0.0084122
0.00839551
0.00837627
0.00835481
0.00833152
0.00830592
0.00851834
0.00852495
0.00853107
0.00853669
0.00853974
0.00854024
0.00853889
0.00853513
0.00853093
0.00852675
0.00852079
0.00851258
0.00850176
0.00848853
0.00847274
0.00845494
0.00843545
0.00841434
0.00839116
0.00665247
0.00680832
0.00695554
0.0070842
0.00720047
0.00734606
0.00744698
0.00754207
0.00763283
0.00771788
0.00779661
0.00787018
0.00794055
0.00800743
0.00807045
0.00812927
0.00818243
0.00822843
0.0082693
0.00667259
0.00682368
0.00697032
0.00710504
0.00723218
0.00739366
0.00750094
0.00755372
0.0076482
0.00778838
0.00787229
0.00795029
0.00802438
0.00809591
0.00816119
0.00821878
0.00827207
0.00832021
0.00836168
0.0066542
0.00681107
0.00695538
0.00708541
0.00720684
0.00732114
0.00742725
0.00757364
0.00766965
0.00775901
0.00784128
0.0079174
0.00798855
0.00805485
0.00811671
0.00817198
0.00822033
0.00826333
0.00830173
0.00667321
0.0068242
0.00697202
0.00711058
0.00724133
0.00736378
0.0074773
0.00758379
0.00768473
0.00783035
0.00791716
0.00799652
0.00807153
0.0081419
0.00820391
0.00825863
0.00830868
0.00835296
0.00839058
0.00665219
0.00680778
0.00695328
0.00708953
0.00721867
0.00734217
0.00745554
0.00756097
0.00765982
0.00780135
0.00788646
0.00796379
0.0080345
0.00809894
0.00815829
0.00821001
0.00825504
0.00829549
0.00833053
0.00667156
0.00682375
0.00697428
0.00711753
0.00725413
0.00738447
0.00750559
0.00761756
0.00772205
0.00787175
0.00796059
0.00804108
0.0081166
0.00818493
0.00824379
0.00829615
0.00834278
0.00838263
0.00841631
0.00665395
0.00680948
0.00696046
0.00710261
0.00723879
0.00736709
0.00748645
0.00759657
0.0076987
0.00784266
0.00792908
0.00800742
0.00807788
0.00814049
0.00819681
0.0082454
0.00828787
0.00832518
0.0083564
0.00667086
0.00682686
0.00698159
0.00713078
0.00727402
0.00740999
0.00753657
0.0076535
0.00776159
0.00786087
0.00795197
0.00808472
0.00815903
0.00822405
0.00828012
0.00833052
0.00837454
0.00841022
0.00843907
0.0067015
0.00681642
0.00697473
0.00712149
0.00726213
0.00739282
0.00751712
0.00763051
0.00773611
0.0078809
0.00796779
0.0080472
0.00811732
0.00817842
0.00823198
0.00827786
0.00831796
0.00835203
0.00837917
0.00666959
0.0068327
0.00699677
0.00715164
0.00729947
0.00743778
0.00756766
0.00768912
0.00780021
0.00790109
0.00799288
0.00812527
0.00819749
0.00825938
0.00831409
0.0083626
0.00840307
0.00843472
0.00845902
0.00665272
0.00682626
0.00699368
0.00714354
0.00729053
0.00742346
0.0075489
0.0076667
0.00777427
0.0079181
0.00800442
0.00808343
0.0081524
0.00821181
0.0082637
0.00830779
0.00834493
0.00837542
0.00839869
0.0066725
0.00684043
0.00701187
0.00717302
0.00732581
0.00746828
0.00760078
0.00772419
0.0078366
0.00793768
0.00802989
0.00816143
0.00823176
0.00829126
0.00834476
0.00839071
0.00842721
0.00845541
0.00847648
0.00666133
0.0068387
0.00700748
0.00716374
0.00731558
0.0074524
0.00758004
0.00770127
0.00781133
0.00795422
0.00803966
0.00811683
0.00818376
0.00824109
0.00829123
0.00833374
0.00836805
0.00839481
0.00841485
0.00667915
0.00685258
0.00702717
0.0071953
0.00735274
0.00749824
0.00763295
0.00775718
0.00787055
0.00797247
0.00806456
0.008193
0.00826138
0.0083194
0.00837124
0.00841392
0.00844697
0.0084726
0.00849144
0.00666299
0.00684815
0.00702547
0.00718551
0.00734434
0.00748452
0.00761548
0.00773343
0.00784413
0.0079418
0.0080277
0.00814677
0.00821145
0.00826682
0.00831446
0.00835459
0.0083862
0.00840992
0.00842736
0.00668306
0.00686433
0.00704809
0.00722057
0.00738052
0.0075299
0.00766756
0.00779144
0.00790347
0.00800515
0.00809595
0.00822033
0.00828692
0.00834372
0.00839303
0.00843227
0.00846239
0.00848633
0.00850364
0.00666786
0.00686326
0.00704095
0.00720874
0.00737322
0.00752077
0.00765045
0.00776633
0.00787662
0.00797211
0.00805687
0.00817183
0.00823482
0.008288
0.00833299
0.00837044
0.00839931
0.00842089
0.00843663
0.00669133
0.00687935
0.00706717
0.00724428
0.00740838
0.00755982
0.00769807
0.00782347
0.00793549
0.0080359
0.00812465
0.00824436
0.0083092
0.00836409
0.00841021
0.00844642
0.00847455
0.00849714
0.00851288
0.00667696
0.00688102
0.00706473
0.00723092
0.00739503
0.00754558
0.00767561
0.00779526
0.00790453
0.00799934
0.00808207
0.00819239
0.0082533
0.0083038
0.00834626
0.00838188
0.00840907
0.00842918
0.00844391
0.00669346
0.00688769
0.00708215
0.00726544
0.00743493
0.00758825
0.00772673
0.00785206
0.00796357
0.0080633
0.00815081
0.00826521
0.00832706
0.00837957
0.00842269
0.00845686
0.00848419
0.00850531
0.00851933
0.00668068
0.00688886
0.00708194
0.00725672
0.00741648
0.00756937
0.00770827
0.00782745
0.00793362
0.00802586
0.00810536
0.00820914
0.00826698
0.00831525
0.00835587
0.00839
0.00841593
0.00843522
0.00844947
0.00669997
0.00689763
0.00709845
0.00728541
0.00745517
0.00761119
0.00775719
0.00788263
0.00799184
0.00808902
0.00817271
0.00828124
0.00833949
0.00838942
0.00843067
0.00846416
0.00849103
0.00851068
0.00852376
0.00668814
0.00690551
0.00710275
0.00728017
0.00744624
0.00760143
0.00773779
0.0078533
0.00795886
0.00804843
0.00812413
0.00822171
0.00827615
0.00832241
0.00836203
0.00839519
0.00842034
0.00843914
0.00845308
0.00670976
0.00691953
0.00712272
0.00731238
0.00748491
0.00764253
0.00778476
0.0079085
0.00801751
0.0081112
0.00818996
0.00829256
0.00834745
0.00839495
0.00843536
0.00846891
0.00849522
0.00851386
0.00852671
0.00669164
0.00692076
0.00712608
0.00730998
0.00747217
0.00762961
0.00776721
0.00788058
0.00798467
0.00806894
0.00813777
0.00822963
0.00828145
0.00832627
0.0083652
0.0083985
0.00842373
0.00844184
0.00845521
0.00671999
0.00693797
0.00714469
0.00733764
0.00751395
0.00767145
0.00781189
0.00793567
0.0080412
0.00812957
0.00820269
0.00829875
0.00835168
0.00839784
0.00843793
0.00847159
0.00849776
0.0085163
0.00852902
0.0067182
0.00695723
0.00715284
0.00733984
0.00751279
0.00766666
0.00779919
0.00790878
0.00800604
0.00808424
0.00814779
0.00823385
0.00828417
0.00832839
0.00836659
0.00839997
0.0084253
0.00844303
0.00845616
0.00673551
0.00696158
0.00717266
0.00736872
0.00754611
0.00770306
0.00784232
0.00796091
0.00805977
0.00814261
0.00821128
0.00830249
0.00835431
0.00839981
0.00843957
0.00847299
0.00849898
0.00851759
0.00853029
0.00672744
0.00697867
0.00718781
0.00736943
0.00753267
0.00768512
0.00781743
0.00792635
0.00801703
0.00809194
0.00815412
0.0082358
0.00828472
0.00832852
0.00836599
0.00839841
0.00842375
0.00844184
0.00845515
0.00675566
0.00699362
0.00720754
0.0073977
0.00757031
0.00772565
0.00786251
0.00797732
0.00807192
0.0081508
0.00821697
0.008304
0.00835507
0.00840025
0.00843958
0.00847262
0.00849798
0.00851619
0.00852912
0.00672648
0.00699808
0.00721783
0.00740014
0.00756156
0.00770132
0.00782543
0.00793356
0.00802104
0.00809311
0.00815344
0.00823289
0.00828093
0.00832453
0.00836229
0.00839391
0.00841935
0.008438
0.00845161
0.00677634
0.00702299
0.00723779
0.00742739
0.00759204
0.00773853
0.00787197
0.00798453
0.00807687
0.00815212
0.00821508
0.00830016
0.00835077
0.00839646
0.00843601
0.00846899
0.00849434
0.00851243
0.00852591
0.00676071
0.00703923
0.00725206
0.00742938
0.00758256
0.00771779
0.00783728
0.00793901
0.00802233
0.0080895
0.00814721
0.00822597
0.00827307
0.0083166
0.00835521
0.00838749
0.00841323
0.00843253
0.00844659
0.00678845
0.00705219
0.00726916
0.00745455
0.00761453
0.00775548
0.00788172
0.00798922
0.00807703
0.00814799
0.0082093
0.00829322
0.00834282
0.00838902
0.00842929
0.0084626
0.00848878
0.00850732
0.00852108
0.00677986
0.00706494
0.00727348
0.00744764
0.00759
0.00772155
0.00784119
0.00793807
0.00801568
0.00808145
0.00814053
0.00821677
0.0082632
0.00830639
0.00834519
0.00837881
0.00840558
0.00842594
0.00844112
0.00681034
0.00707129
0.00728915
0.00747041
0.00762746
0.00776477
0.00788526
0.00798872
0.00807266
0.00814158
0.00820214
0.00828392
0.00833292
0.00837904
0.00842024
0.0084541
0.00848095
0.00850069
0.00851504
0.00679302
0.00706968
0.00727578
0.00744966
0.00758731
0.00771642
0.00783532
0.00792936
0.00800437
0.00809601
0.00815355
0.00820403
0.00825053
0.00829324
0.00833201
0.00836646
0.00839553
0.00841748
0.00843444
0.00681627
0.00707483
0.0072906
0.00747173
0.00762584
0.00776079
0.00787876
0.00798006
0.00806288
0.00816206
0.00821924
0.00827183
0.00832042
0.00836615
0.0084078
0.0084427
0.00847086
0.00849298
0.0085088
0.00670868
0.00681437
0.00696316
0.00709231
0.00720773
0.00735261
0.00744856
0.00753765
0.00762306
0.00770433
0.00778046
0.00785292
0.00792264
0.00798927
0.00805331
0.0081145
0.00816946
0.00821661
0.00825819
0.00666613
0.00683739
0.00699475
0.00712346
0.0072371
0.00737791
0.00747069
0.00755582
0.00763768
0.00771658
0.00779215
0.00786553
0.00793644
0.00800371
0.00806804
0.00812916
0.00818303
0.00822917
0.00827015
0.00668188
0.00686253
0.00702171
0.00715004
0.0072629
0.00739841
0.0074878
0.00756921
0.0076485
0.00772625
0.00780194
0.00787588
0.00794734
0.00801574
0.00808088
0.00814122
0.00819367
0.00823877
0.00827903
0.00668618
0.0068823
0.00704519
0.00717291
0.0073158
0.00741243
0.00749944
0.00757896
0.00765703
0.00773484
0.00781085
0.00788499
0.00795677
0.00802578
0.00809145
0.00815099
0.00820183
0.00824579
0.00828528
0.00668815
0.0068994
0.00706316
0.00718866
0.00732553
0.00741978
0.00750646
0.00758671
0.00766416
0.00774192
0.00781851
0.00789296
0.00796532
0.00803494
0.00809994
0.00815793
0.00820785
0.00825154
0.00829017
0.00668957
0.00691385
0.00710675
0.00722729
0.00733022
0.00742351
0.00751086
0.00759213
0.00766893
0.00774623
0.00782403
0.00789911
0.00797147
0.00804093
0.00810531
0.00816254
0.00821216
0.00825542
0.0082929
0.00669408
0.0069249
0.00708168
0.00720133
0.0073323
0.00742563
0.00751281
0.0075945
0.00767201
0.00774913
0.00782775
0.00790404
0.00797624
0.00804463
0.00810818
0.00816548
0.00821459
0.00825637
0.00829242
0.00671199
0.00693203
0.00708438
0.00720126
0.00733294
0.00742652
0.00751323
0.00759515
0.00767321
0.00775063
0.00782934
0.00790622
0.00797862
0.00804642
0.00810897
0.00816545
0.00821371
0.00825398
0.00828895
0.00670324
0.00693033
0.00708448
0.00720062
0.00733281
0.00742612
0.00751327
0.00759504
0.00767218
0.00775007
0.00782922
0.00790559
0.00797755
0.00804474
0.00810607
0.00816074
0.00820789
0.00824726
0.00828114
0.00670338
0.00693088
0.00708379
0.0072008
0.00730257
0.00739483
0.00751249
0.00759387
0.00767087
0.00774854
0.00782714
0.00790273
0.00797339
0.00803871
0.00809792
0.00815077
0.00819694
0.00823581
0.00826907
0.00671433
0.00693158
0.00708462
0.007202
0.00730144
0.00739261
0.00751061
0.00759266
0.00767076
0.00774705
0.00782257
0.00789586
0.00796426
0.00802652
0.00808315
0.0081347
0.00818069
0.00821992
0.00825342
0.00671986
0.0069306
0.00708219
0.0071998
0.00729803
0.00739097
0.00747793
0.00755958
0.00767083
0.00774432
0.00781526
0.00788399
0.00794859
0.0080079
0.00806274
0.00811314
0.00815908
0.00819972
0.00823483
0.00670734
0.00692668
0.00707928
0.00722726
0.00729893
0.00739423
0.00748149
0.00756123
0.00766717
0.00773716
0.007804
0.007868
0.00792894
0.00798618
0.00803955
0.00808875
0.00813447
0.00817656
0.00821402
0.00670599
0.00691914
0.00707304
0.00719506
0.00730441
0.00739643
0.00748229
0.00758783
0.00765835
0.00772537
0.00778907
0.00784989
0.00790784
0.00796249
0.00801421
0.00806266
0.0081082
0.00815128
0.00819092
0.00670507
0.00691046
0.00707029
0.00719853
0.0073072
0.00739766
0.0074789
0.00757964
0.00764735
0.00771126
0.00777144
0.00782939
0.007885
0.00793754
0.00798762
0.0080354
0.00808066
0.00812426
0.00816605
0.00670014
0.00691267
0.00707509
0.00720058
0.00730535
0.00739582
0.0074746
0.00757087
0.00763494
0.00769502
0.00775196
0.00780705
0.00786061
0.00791224
0.0079611
0.00800772
0.0080527
0.00809631
0.00813914
0.00669514
0.0069046
0.00706926
0.00720022
0.00730311
0.00738895
0.00746728
0.00756011
0.00762104
0.0076776
0.00773224
0.00778513
0.00783622
0.00788637
0.00793461
0.00798021
0.00802458
0.00806806
0.00811113
0.00669816
0.00690268
0.00706507
0.00719238
0.00729575
0.00738079
0.00745624
0.00754756
0.00760684
0.00766083
0.00771274
0.00776351
0.00781259
0.0078606
0.00790793
0.00795318
0.00799698
0.00804055
0.00808376
0.00669444
0.00690263
0.00706299
0.00721006
0.00731068
0.00737212
0.00744695
0.00753483
0.00759278
0.00764506
0.00769415
0.00774239
0.00778986
0.00783615
0.007882
0.00792681
0.00797021
0.00801328
0.00805645
0.00667482
0.0068284
0.0069764
0.0071599
0.00723695
0.00735149
0.0074996
0.0075949
0.00768617
0.00777261
0.00785463
0.00793181
0.00800588
0.00807933
0.0081469
0.00820571
0.00825953
0.00830858
0.00835158
0.0066794
0.00684573
0.00700406
0.00714334
0.00726613
0.00737767
0.00751991
0.00761175
0.00769919
0.00778373
0.0078658
0.00794306
0.00801776
0.00809205
0.00815981
0.00821874
0.00827223
0.00831991
0.0083606
0.00669284
0.00686882
0.00703215
0.00717273
0.00729245
0.0073993
0.00753671
0.00762477
0.00770906
0.00779248
0.0078751
0.0079529
0.00802774
0.00810253
0.00817054
0.00822903
0.00828178
0.0083286
0.00836794
0.00670432
0.00689251
0.0070567
0.00719355
0.00731143
0.00741547
0.00754818
0.00763401
0.00771747
0.00780095
0.00788299
0.00796116
0.00803669
0.00811128
0.00817898
0.00823688
0.00828857
0.00833436
0.00837321
0.00671053
0.00690802
0.00707325
0.00720844
0.00732299
0.00742502
0.00755498
0.00764033
0.00772378
0.00780793
0.00788988
0.00796852
0.00804447
0.00811804
0.00818536
0.00824308
0.00829375
0.0083386
0.00837634
0.00671973
0.00691914
0.00708414
0.0072169
0.00732886
0.00742967
0.0075594
0.00764542
0.00772836
0.00781266
0.00789541
0.0079741
0.00804989
0.00812265
0.00818933
0.00824694
0.00829713
0.00834125
0.00837772
0.00672254
0.00692452
0.00708932
0.00721874
0.00736728
0.00746746
0.00756097
0.00764837
0.0077323
0.00781644
0.00789904
0.00797784
0.00805367
0.00812589
0.0081916
0.00824874
0.0082985
0.00834141
0.00837617
0.00672271
0.0069284
0.00709042
0.00721873
0.00732999
0.00743113
0.00755986
0.0076484
0.00773337
0.00781748
0.00789995
0.00797937
0.00805571
0.00812746
0.00819219
0.00824817
0.0082967
0.00833819
0.00837147
0.00672033
0.00692622
0.00708734
0.00721826
0.00733044
0.00743133
0.007559
0.0076473
0.00773214
0.00781618
0.00789896
0.00797877
0.00805481
0.00812524
0.0081889
0.00824371
0.00829037
0.0083304
0.00836315
0.00672144
0.00692881
0.00708934
0.00721923
0.00733112
0.00743127
0.00752472
0.00761254
0.00773081
0.00781442
0.0078965
0.00797533
0.00804969
0.00811784
0.00817944