/*--------------------------------*- C++ -*----------------------------------*\
| =========                 |                                                 |
| \\      /  F ield         | foam-extend: Open Source CFD                    |
|  \\    /   O peration     | Version:     3.1                                |
|   \\  /    A nd           | Web:         http://www.extend-project.de       |
|    \\/     M anipulation  |                                                 |
\*---------------------------------------------------------------------------*/
FoamFile
{
    version     2.0;
    format      ascii;
    class       volScalarField;
    location    "345600";
    object      Z;
}
// * * * * * * * * * * * * * * * * * * * * * * * * * * * * * * * * * * * * * //

dimensions      [0 1 0 0 0 0 0];

internalField   nonuniform List<scalar> 
23248
(
0.00292164
0.00292164
0.00292163
0.00292162
0.00292159
0.00292151
0.00292132
0.00292109
0.00292364
0.00281384
0.00281384
0.00281386
0.00281388
0.00281392
0.00281399
0.00281415
0.00281501
0.00282037
0.00288668
0.00288668
0.00288668
0.00288667
0.00288664
0.00288656
0.00288638
0.00288622
0.00288947
0.00278131
0.00278131
0.00278132
0.00278133
0.00278136
0.00278142
0.00278158
0.00278253
0.00278871
0.00287199
0.00287199
0.00287199
0.00287197
0.00287195
0.00287187
0.00287169
0.00287157
0.00287471
0.00276778
0.00276779
0.00276779
0.00276781
0.00276784
0.0027679
0.00276805
0.00276903
0.00277556
0.00287548
0.00287548
0.00287548
0.00287547
0.00287544
0.00287536
0.00287517
0.00287492
0.00287772
0.00277341
0.00277341
0.00277342
0.00277343
0.00277346
0.00277352
0.00277366
0.00277445
0.00278038
0.00289683
0.00289683
0.00289682
0.00289681
0.00289678
0.00289671
0.00289653
0.00289635
0.00289787
0.00279583
0.00279584
0.00279584
0.00279586
0.0027959
0.00279597
0.00279613
0.0027969
0.00280193
0.00292723
0.00292723
0.00292722
0.00292722
0.00292722
0.00292715
0.002927
0.00292705
0.0029302
0.00283152
0.00283152
0.00283153
0.00283155
0.00283158
0.00283165
0.00283183
0.00283278
0.0028381
0.00297271
0.0029727
0.0029727
0.00297269
0.00297268
0.00297255
0.00297239
0.00297238
0.00297515
0.00288459
0.00288459
0.0028846
0.00288462
0.00288466
0.00288473
0.0028849
0.00288577
0.0028909
0.00304107
0.00304106
0.00304105
0.00304104
0.00304102
0.00304101
0.00304088
0.00304098
0.00304337
0.00295776
0.00295776
0.00295777
0.00295778
0.00295782
0.00295788
0.00295804
0.00295877
0.00296294
0.00311874
0.00311874
0.00311871
0.0031187
0.00311867
0.00311858
0.00311849
0.00311855
0.00312026
0.00303986
0.00303986
0.00303986
0.00303987
0.00303989
0.00303994
0.00304008
0.0030408
0.00304494
0.00321267
0.00321267
0.00321266
0.00321264
0.00321261
0.00321236
0.00321132
0.00321218
0.0032128
0.00313617
0.00313617
0.00313618
0.0031362
0.00313622
0.00313618
0.00313618
0.00313709
0.00314216
0.00331701
0.00331701
0.00331696
0.00331694
0.00331691
0.00331679
0.00332916
0.00331581
0.00331781
0.00324834
0.00324835
0.00324836
0.00324838
0.00324844
0.00324853
0.00324861
0.00324965
0.0032549
0.00343543
0.00343543
0.00343543
0.00343542
0.0034354
0.00343576
0.00343687
0.00343614
0.00343717
0.00337608
0.00337608
0.00337609
0.00337612
0.00337619
0.00337635
0.00337651
0.00337738
0.00338214
0.00357885
0.00357885
0.00357885
0.00357884
0.00357882
0.00357883
0.00357864
0.00357843
0.00357949
0.00351822
0.00351824
0.00351825
0.00351829
0.00351838
0.00351854
0.00351888
0.00351993
0.00352486
0.00372096
0.003721
0.003721
0.003721
0.00372098
0.00372091
0.00372076
0.00372083
0.0037253
0.00367108
0.00367109
0.00367111
0.00367115
0.00367123
0.00367137
0.00367169
0.00367303
0.0036793
0.00389125
0.00389128
0.00389128
0.00389127
0.00389125
0.00389119
0.00389108
0.00389138
0.00389644
0.00384796
0.00384798
0.003848
0.00384805
0.00384813
0.00384829
0.00384876
0.00385101
0.00386167
0.00410924
0.00410942
0.00410942
0.00410943
0.00410941
0.00410938
0.00410937
0.00411021
0.00412087
0.00408576
0.00408578
0.00408581
0.00408586
0.00408594
0.00408612
0.00408667
0.00408954
0.00410332
0.00444621
0.0044462
0.0044462
0.0044462
0.00444618
0.00444613
0.00444608
0.00444629
0.00444853
0.00441254
0.00441256
0.00441259
0.00441264
0.00441273
0.00441286
0.00441335
0.00441559
0.00442556
0.00479017
0.00479016
0.00479016
0.00479015
0.00479014
0.00479012
0.00479021
0.00479122
0.00479803
0.00477255
0.00477256
0.00477258
0.0047726
0.00477266
0.00477278
0.00477328
0.00477578
0.00478744
0.00519005
0.00519003
0.00519004
0.00519003
0.00519003
0.00519002
0.00519002
0.00519013
0.00519068
0.00517793
0.00517794
0.00517795
0.00517797
0.00517802
0.00517812
0.00517838
0.00517908
0.00518151
0.0029445
0.0029445
0.00294449
0.0029445
0.00294459
0.00294447
0.00294425
0.00294425
0.00294638
0.00298975
0.00298972
0.00298955
0.00298951
0.00297537
0.00298964
0.00298952
0.00297527
0.00298539
0.00303067
0.00303065
0.00303983
0.00303993
0.00304017
0.00303055
0.00303023
0.00303969
0.00304271
0.00310582
0.00310587
0.00310574
0.00310575
0.00310572
0.00310575
0.00310559
0.00310529
0.00310917
0.00318298
0.00318295
0.00318294
0.00318287
0.00318286
0.00318276
0.00318251
0.00318237
0.00318612
0.00325955
0.00325954
0.00325947
0.00325947
0.00325948
0.00325938
0.00325915
0.00325882
0.0032607
0.00333774
0.00333773
0.0033377
0.0033377
0.00333769
0.00333759
0.00333737
0.0033371
0.00333976
0.00342267
0.00342267
0.00342266
0.00342265
0.00342262
0.00342252
0.00342227
0.00342218
0.00342717
0.00349648
0.00349648
0.00349647
0.00349644
0.00349637
0.00349626
0.00349598
0.00349589
0.00350262
0.003585
0.00358499
0.00358498
0.00358487
0.00358461
0.00358459
0.00358437
0.00358425
0.00358936
0.00366854
0.00366854
0.00366853
0.00366851
0.00366851
0.00366834
0.00366813
0.00366825
0.00367494
0.00377313
0.00377313
0.00377312
0.00377311
0.00377307
0.00377292
0.00377271
0.00377286
0.0037803
0.0039147
0.00391467
0.00391466
0.00391464
0.00391462
0.00391448
0.00391416
0.00391431
0.00392105
0.00410243
0.00410239
0.00410238
0.00410237
0.00410235
0.00410226
0.00410198
0.00410196
0.00410554
0.00433189
0.00433189
0.00433188
0.00433188
0.00433186
0.00433179
0.00433162
0.00433139
0.00433172
0.00456843
0.00456843
0.00456843
0.00456843
0.00456842
0.00456838
0.00456826
0.00456799
0.00456708
0.0047902
0.0047902
0.00479019
0.0047902
0.00479021
0.00479017
0.0047901
0.00479003
0.00479118
0.00503063
0.00503064
0.00503063
0.00503065
0.00503065
0.00503063
0.00503059
0.00503073
0.00503264
0.00528287
0.00528286
0.00528286
0.00528286
0.00528286
0.00528285
0.00528284
0.00528282
0.00528241
0.00283607
0.00283608
0.00283609
0.00283614
0.0028362
0.00283629
0.00283648
0.00283738
0.00284242
0.00288534
0.00288533
0.00288534
0.00288541
0.00288552
0.00288562
0.0028859
0.00288697
0.00289176
0.00293814
0.00293819
0.00293834
0.00293846
0.00293853
0.0029385
0.00293867
0.00293978
0.00294544
0.00300704
0.00300707
0.0030071
0.0030072
0.00300726
0.00300733
0.00300746
0.00300852
0.00301462
0.00308466
0.00308465
0.00308465
0.00308468
0.00308471
0.00308477
0.00308494
0.00308615
0.00309334
0.00316689
0.00316688
0.00316687
0.00316686
0.00316689
0.00316696
0.00316712
0.00316799
0.00317319
0.00325259
0.00325259
0.00325259
0.00325261
0.00325264
0.0032527
0.00325284
0.003254
0.0032609
0.00333406
0.00333406
0.00333406
0.00333408
0.00333411
0.00333415
0.00333429
0.0033355
0.00334292
0.00341677
0.00341677
0.00341677
0.00341677
0.00341678
0.00341683
0.003417
0.00341808
0.00342465
0.00350732
0.00350733
0.00350734
0.00350734
0.00350736
0.00350742
0.0035076
0.00350873
0.00351555
0.00359722
0.00359722
0.00359723
0.00359725
0.00359728
0.00359735
0.00359755
0.00359894
0.00360714
0.00370723
0.00370724
0.00370724
0.00370727
0.00370731
0.00370739
0.00370762
0.00370918
0.00371828
0.00385577
0.00385577
0.00385578
0.00385581
0.00385585
0.00385591
0.00385607
0.00385751
0.00386655
0.00404889
0.0040489
0.00404892
0.00404894
0.004049
0.00404907
0.00404921
0.00405017
0.00405654
0.00427621
0.00427622
0.00427625
0.00427629
0.00427637
0.00427649
0.00427668
0.00427735
0.00428143
0.00452049
0.00452049
0.00452052
0.00452058
0.00452067
0.00452082
0.00452105
0.00452155
0.00452337
0.00476055
0.00476056
0.00476058
0.00476061
0.00476067
0.00476076
0.00476093
0.00476151
0.00476414
0.00501131
0.00501131
0.00501132
0.00501134
0.00501138
0.00501144
0.00501158
0.0050122
0.00501533
0.0052686
0.00526861
0.00526862
0.00526864
0.00526868
0.00526876
0.00526889
0.00526925
0.00527075
0.00440404
0.00446516
0.00452672
0.00458864
0.00465076
0.0047132
0.00477499
0.00483539
0.00489463
0.00495401
0.00501274
0.00507049
0.00512707
0.00518216
0.00523643
0.00529025
0.00534353
0.00539584
0.00544666
0.00442863
0.00448795
0.00454854
0.00460937
0.00467017
0.0047312
0.0047906
0.00484823
0.00490519
0.00496232
0.00501952
0.00507612
0.00513125
0.00518547
0.00523939
0.00529275
0.00534522
0.00539644
0.0054464
0.00446686
0.00452712
0.00458822
0.00464974
0.00471173
0.00477387
0.00483461
0.00489354
0.00495127
0.00500917
0.00506691
0.00512352
0.00517927
0.00523431
0.005289
0.00534282
0.00539532
0.00544637
0.00549636
0.00448989
0.00454871
0.00460737
0.00466648
0.00472619
0.00478651
0.00484557
0.00490288
0.0049596
0.00501615
0.00507257
0.00512833
0.00518309
0.00523751
0.00529161
0.00534496
0.00539688
0.00544716
0.00549639
0.00452845
0.00458864
0.00464852
0.00470817
0.00476864
0.00482999
0.00489013
0.0049488
0.00500665
0.00506367
0.00512033
0.00517679
0.00523268
0.00528786
0.00534234
0.00539567
0.00544738
0.00549745
0.00554686
0.00454752
0.00460692
0.00466438
0.00472165
0.00478009
0.0048392
0.00489736
0.00495587
0.00501427
0.00507095
0.00512654
0.00518097
0.00523537
0.00529012
0.00534392
0.00539669
0.00544834
0.0054983
0.0055472
0.00458691
0.0046473
0.00470701
0.00476474
0.004823
0.00488303
0.00494256
0.00500233
0.00506259
0.00511998
0.00517552
0.00523135
0.00528704
0.00534175
0.00539529
0.00544818
0.00549972
0.00554938
0.00559845
0.00460253
0.00466231
0.00472002
0.00477559
0.00483254
0.00489108
0.00494885
0.00500852
0.00506958
0.00512668
0.00518088
0.0052344
0.005288
0.00534238
0.0053961
0.00544842
0.00549997
0.00555004
0.0055987
0.00464312
0.00470282
0.00476315
0.00482058
0.00487691
0.00493561
0.0049953
0.00505616
0.00511888
0.00517779
0.00523241
0.00528725
0.00534202
0.00539554
0.0054482
0.00550049
0.00555212
0.00560198
0.00565113
0.00465663
0.00471552
0.00477406
0.00483025
0.00488616
0.00494464
0.005004
0.00506384
0.00512538
0.00518321
0.0052362
0.00528886
0.00534194
0.0053952
0.00544836
0.00550085
0.00555221
0.00560213
0.00565096
0.0046995
0.00475742
0.00481776
0.00487639
0.00493289
0.00499153
0.00505222
0.00511355
0.0051759
0.00523514
0.00528972
0.00534342
0.00539704
0.00544966
0.00550168
0.00555339
0.00560459
0.00565489
0.00570468
0.00471147
0.00476958
0.00482886
0.00488663
0.00494354
0.00500214
0.00506271
0.00512277
0.00518196
0.00523953
0.00529304
0.00534485
0.00539729
0.00544967
0.00550179
0.0055537
0.00560486
0.00565463
0.00570361
0.00475687
0.00481438
0.0048748
0.00493466
0.00499306
0.00505261
0.00511325
0.00517434
0.00523475
0.00529238
0.00534707
0.00539994
0.00545216
0.00550411
0.00555559
0.00560694
0.00565782
0.00570833
0.00575906
0.00476914
0.00482764
0.004887
0.00494535
0.00500307
0.00506152
0.00512142
0.00518147
0.0052396
0.00529558
0.00534961
0.00540151
0.00545276
0.00550449
0.00555572
0.00560652
0.00565722
0.00570716
0.0057566
0.00481576
0.00487542
0.00493587
0.00499599
0.00505595
0.00511638
0.0051757
0.0052346
0.00529325
0.00534935
0.00540343
0.00545583
0.00550677
0.00555786
0.0056092
0.00566056
0.0057118
0.00576308
0.00581505
0.00482939
0.00488822
0.00494703
0.00500522
0.0050636
0.00512174
0.00517943
0.00523788
0.00529582
0.00535117
0.00540445
0.00545632
0.00550683
0.00555776
0.00560872
0.005659
0.00570948
0.00575986
0.00581042
0.00487721
0.0049382
0.00499761
0.00505657
0.00511643
0.00517734
0.00523609
0.00529298
0.00534956
0.00540454
0.00545789
0.00551
0.00556044
0.00561093
0.00566258
0.00571471
0.0057672
0.00582005
0.00587328
0.00489013
0.00494851
0.00500646
0.00506379
0.00512238
0.005181
0.00523759
0.0052935
0.00534988
0.00540506
0.00545793
0.00550981
0.00556012
0.00560978
0.00566074
0.00571189
0.00576277
0.00581432
0.00586666
0.00493898
0.0049994
0.00505779
0.00511577
0.00517446
0.00523411
0.00529279
0.00534925
0.00540429
0.00545816
0.00551072
0.00556313
0.00561469
0.0056655
0.00571758
0.0057709
0.00582489
0.00587926
0.00593324
0.00495005
0.0050079
0.0050653
0.005122
0.00517936
0.00523763
0.00529451
0.0053494
0.00540364
0.00545762
0.00551049
0.00556256
0.00561386
0.00566347
0.00571359
0.00576564
0.00581815
0.00587151
0.00592566
0.00499889
0.00505866
0.00511712
0.00517457
0.00523253
0.00529078
0.00534808
0.00540348
0.00545745
0.00551049
0.00556272
0.00561552
0.00566945
0.00572244
0.00577509
0.00582913
0.00588398
0.00593923
0.00599441
0.00500875
0.00506625
0.0051233
0.00517957
0.00523643
0.00529331
0.00534912
0.00540386
0.00545734
0.00550987
0.00556193
0.00561414
0.00566666
0.00571864
0.00576962
0.00582164
0.00587584
0.00593057
0.00598528
0.00505779
0.00511714
0.00517581
0.00523301
0.00529024
0.00534734
0.00540278
0.00545652
0.00550935
0.00556211
0.00561435
0.00566745
0.00572275
0.00577812
0.00583241
0.00588726
0.00594302
0.00599911
0.00605575
0.00506606
0.00512355
0.00518029
0.0052366
0.00529277
0.00534817
0.0054023
0.00545607
0.00550942
0.00556179
0.00561322
0.00566488
0.00571807
0.00577219
0.00582566
0.00587896
0.00593375
0.00598904
0.00604377
0.00511563
0.00517457
0.00523282
0.00529026
0.00534679
0.00540218
0.00545615
0.00550901
0.00556117
0.00561336
0.0056658
0.0057195
0.00577518
0.00583123
0.005887
0.00594364
0.00600116
0.00605885
0.00611638
0.00512201
0.00517964
0.00523647
0.00529271
0.00534782
0.00540189
0.00545528
0.00550814
0.00556063
0.005613
0.00566481
0.0057164
0.00576941
0.00582443
0.0058795
0.00593415
0.00598988
0.00604569
0.00610107
0.0051725
0.00523107
0.00528919
0.00534634
0.00540182
0.00545581
0.00550876
0.00556099
0.00561301
0.00566478
0.00571726
0.00577164
0.00582767
0.00588443
0.00594129
0.00599931
0.00605856
0.00611805
0.00617716
0.00517781
0.00523518
0.00529214
0.00534776
0.00540173
0.00545519
0.005508
0.00555996
0.00561185
0.00566359
0.00571557
0.00576806
0.00582129
0.00587696
0.00593334
0.00598884
0.00604535
0.00610194
0.00615837
0.00522925
0.00528782
0.00534559
0.00540147
0.0054555
0.00550857
0.00556084
0.00561268
0.00566454
0.00571676
0.0057697
0.00582446
0.00588149
0.00593953
0.00599788
0.00605699
0.00611649
0.00617669
0.00623789
0.00523362
0.00529098
0.00534774
0.00540247
0.00545538
0.00550791
0.00555985
0.00561133
0.00566272
0.00571412
0.00576589
0.00581897
0.0058736
0.00593025
0.00598795
0.00604493
0.00610233
0.00615972
0.0062171
0.00528677
0.00534468
0.00540072
0.00545483
0.00550761
0.00556015
0.00561252
0.00566445
0.00571655
0.00576945
0.00582373
0.00587973
0.00593776
0.00599677
0.00605667
0.00611707
0.00617649
0.0062365
0.00629837
0.00528969
0.00534672
0.00540202
0.00545561
0.00550808
0.0055598
0.00561131
0.00566293
0.00571419
0.00576532
0.00581751
0.00587138
0.00592721
0.00598503
0.00604382
0.00610247
0.00616113
0.00621937
0.00627756
0.00534426
0.00540066
0.00545474
0.00550761
0.00555993
0.00561175
0.00566418
0.00571668
0.00576946
0.00582379
0.00587987
0.00593734
0.00599623
0.0060563
0.00611718
0.00617838
0.00623865
0.00629873
0.00635975
0.00534597
0.00540157
0.0054551
0.00550764
0.00556005
0.0056117
0.00566276
0.00571428
0.00576608
0.00581784
0.00587105
0.00592629
0.00598336
0.00604223
0.00610209
0.00616204
0.00622179
0.00628041
0.00633907
0.00540005
0.00545469
0.00550835
0.00556103
0.00561324
0.00566501
0.00571709
0.00576991
0.00582372
0.00587985
0.00593809
0.00599721
0.00605749
0.00611925
0.00618111
0.00624176
0.00630182
0.00636275
0.00642249
0.00540123
0.00545522
0.00550803
0.00556033
0.00561244
0.00566412
0.0057151
0.00576589
0.00581809
0.00587169
0.00592669
0.0059837
0.00604239
0.00610234
0.00616309
0.00622384
0.0062836
0.00634228
0.00640099
0.00545417
0.00550774
0.00556153
0.00561473
0.00566685
0.00571902
0.00577141
0.00582459
0.00587971
0.0059374
0.00599769
0.00605959
0.00612181
0.00618441
0.00624657
0.00630642
0.00636557
0.00642604
0.00648614
0.00545513
0.00550827
0.00556072
0.0056132
0.00566488
0.00571651
0.00576801
0.00581912
0.00587194
0.00592706
0.00598442
0.00604376
0.00610425
0.00616523
0.00622621
0.00628638
0.00634537
0.00640396
0.00646336
0.00295106
0.0029892
0.00303876
0.00309695
0.00316172
0.0032236
0.0032971
0.00337275
0.00345166
0.00353104
0.00361053
0.00369255
0.00377734
0.00386468
0.00395498
0.00404716
0.00413862
0.0042301
0.00432468
0.00284509
0.0028853
0.00293812
0.00300014
0.00307108
0.00314264
0.00322207
0.00329986
0.00338194
0.00347746
0.00356418
0.00365329
0.00374531
0.00384199
0.00394061
0.00403796
0.00413685
0.00423961
0.00434507
0.00292034
0.00296214
0.00301516
0.00307848
0.00314772
0.0032219
0.00329823
0.00338128
0.00346506
0.00355043
0.00363613
0.00372369
0.00381386
0.00390747
0.00400281
0.00409687
0.00419088
0.00428743
0.00438646
0.00281547
0.00285924
0.0029166
0.00298499
0.00306078
0.00314007
0.00322206
0.00330519
0.00339256
0.00349797
0.00359087
0.00368495
0.00378273
0.00388496
0.00398656
0.00408717
0.00419078
0.00429751
0.00440491
0.00290565
0.00295027
0.0030072
0.00307548
0.00314859
0.0032263
0.00330741
0.00339091
0.00347531
0.00357729
0.00366773
0.00375945
0.00385351
0.00395201
0.00405142
0.00414808
0.00424535
0.00434616
0.00444741
0.00280415
0.00285121
0.00291245
0.00298396
0.00306177
0.00314563
0.00323336
0.00332189
0.00341305
0.00352493
0.0036226
0.0037213
0.00382459
0.00393104
0.00403514
0.00413977
0.00424722
0.00435557
0.00446277
0.0029109
0.00295884
0.00301963
0.00308721
0.00316147
0.00324227
0.00332765
0.00341463
0.00350327
0.00361092
0.00370551
0.00380181
0.00390002
0.00400161
0.00410333
0.00420296
0.00430361
0.00440582
0.00450662
0.0028087
0.00286006
0.00292429
0.00299681
0.00307722
0.00316432
0.00325495
0.0033469
0.00344137
0.00353791
0.00363665
0.00376561
0.00387336
0.00398192
0.00408802
0.00419656
0.00430714
0.00441433
0.00451914
0.00292319
0.00297805
0.00304108
0.00311068
0.0031871
0.00326921
0.00335672
0.0034449
0.00353713
0.00365155
0.00375026
0.00385187
0.00395449
0.00405759
0.00416001
0.00426249
0.00436605
0.00446764
0.00456546
0.00282873
0.00288027
0.00294761
0.00302321
0.00310633
0.00319392
0.00328563
0.00338061
0.00347854
0.00357854
0.00368107
0.00381878
0.00392896
0.00403771
0.0041463
0.00425867
0.00436982
0.00447456
0.00457608
0.00295792
0.00300747
0.00307236
0.00314279
0.00322373
0.00330645
0.00339447
0.0034872
0.00358355
0.0037036
0.00380485
0.00390997
0.00401432
0.00411751
0.00422145
0.00432711
0.00443134
0.00453064
0.00462494
0.00286309
0.0029137
0.00298136
0.00305881
0.00314452
0.00323361
0.00332769
0.0034258
0.00352703
0.0036288
0.00373485
0.00388024
0.00399088
0.00409855
0.00420964
0.00432441
0.00443338
0.00453499
0.00463348
0.00300661
0.00305459
0.0031121
0.00318431
0.00326904
0.00335453
0.00344582
0.00354243
0.00364227
0.00376908
0.00387183
0.00397674
0.00408045
0.00418298
0.00428834
0.0043953
0.00449676
0.00459146
0.00468312
0.00291605
0.00296387
0.00302674
0.00310449
0.00319247
0.00328561
0.00338391
0.00348383
0.00358677
0.00369035
0.00379923
0.00394844
0.00405844
0.00416592
0.00427838
0.00439125
0.00449517
0.0045938
0.00469133
0.00307014
0.00311409
0.00317133
0.00324216
0.00333068
0.00342006
0.00351457
0.00361058
0.00371313
0.00381235
0.00391281
0.00405218
0.00415475
0.00425679
0.00436117
0.0044644
0.00455991
0.00464988
0.00474009
0.00298594
0.00303129
0.00309429
0.00317019
0.00325772
0.0033542
0.00345532
0.00355796
0.00366165
0.00376543
0.00387411
0.0040234
0.00413241
0.0042405
0.00435188
0.004459
0.00455621
0.00465233
0.00475049
0.00314753
0.00319371
0.0032513
0.00332209
0.00340906
0.00350365
0.00359572
0.00369198
0.00379669
0.00389553
0.00399574
0.00413531
0.00423618
0.00433611
0.00443734
0.0045346
0.00462345
0.00471015
0.00479969
0.00306848
0.00311406
0.00317772
0.00325594
0.00334225
0.00343681
0.00353775
0.00364279
0.00374821
0.00385277
0.00395998
0.00410752
0.004215
0.00432204
0.00442864
0.0045283
0.00462029
0.00471453
0.00481175
0.00323996
0.00328664
0.00334815
0.00341819
0.00350064
0.00359432
0.00368759
0.00378597
0.00388885
0.00398772
0.00408689
0.00422591
0.00432402
0.00441971
0.00451571
0.00460681
0.00469072
0.00477538
0.00486303
0.00316667
0.00321184
0.00327632
0.00335699
0.00344397
0.00353615
0.00363633
0.0037402
0.00384447
0.00394909
0.00405546
0.0042014
0.00430503
0.0044086
0.00450812
0.00460039
0.00468916
0.0047818
0.00487486
0.00334908
0.00339833
0.00346189
0.00353643
0.0036143
0.00370341
0.00379896
0.00389663
0.00399711
0.0040947
0.00418953
0.00432576
0.00441936
0.0045095
0.00459855
0.00468299
0.0047625
0.00484444
0.00492742
0.0032831
0.00333236
0.00339711
0.00347486
0.00355865
0.00364989
0.0037525
0.00385511
0.00395675
0.00405903
0.00416126
0.00430421
0.00440164
0.00449867
0.00459089
0.00467696
0.00476249
0.00485111
0.00493761
0.00347066
0.00351864
0.00358284
0.00365971
0.00374248
0.00383102
0.00392389
0.004017
0.00411813
0.00421183
0.00430321
0.00443587
0.0045235
0.00460585
0.0046865
0.00476447
0.00483863
0.00491479
0.00499074
0.00340991
0.00346181
0.00352845
0.00360858
0.003694
0.00378565
0.00388222
0.00398113
0.00408256
0.00418103
0.00427685
0.00441691
0.00450667
0.0045939
0.00467789
0.00475837
0.00483872
0.00491969
0.00499806
0.00360934
0.00365796
0.00372206
0.00380343
0.00388419
0.00397389
0.00406571
0.00415685
0.00425502
0.00434104
0.00442544
0.00455444
0.00463424
0.0047069
0.00477805
0.00484911
0.00491652
0.00498457
0.00505245
0.0035523
0.00360392
0.00367345
0.00375677
0.00384434
0.0039354
0.00402693
0.00412429
0.0042222
0.00431373
0.0044042
0.00453828
0.0046182
0.00469427
0.00476884
0.00484252
0.0049158
0.00498824
0.00505789
0.00376416
0.00381924
0.00388324
0.00396236
0.00405469
0.00414409
0.00422933
0.0043154
0.00440198
0.00448179
0.00456117
0.00468066
0.00474949
0.00481122
0.00487173
0.00493436
0.00499442
0.0050541
0.00511358
0.00371497
0.0037718
0.0038429
0.00392691
0.00401503
0.00410486
0.00419383
0.00428436
0.00437231
0.0044567
0.00454207
0.00466689
0.00473466
0.00479934
0.00486379
0.00492893
0.00499368
0.00505774
0.00511886
0.00394713
0.00400833
0.00408284
0.00415832
0.00423942
0.00432385
0.00440883
0.00448642
0.00455865
0.0046331
0.00470695
0.00481414
0.00487038
0.00492115
0.00497037
0.00502227
0.00507391
0.00512505
0.00517503
0.00390439
0.00397177
0.00405038
0.00413283
0.00421181
0.00429564
0.00438119
0.00446075
0.00453778
0.00461365
0.00468977
0.00480271
0.00485835
0.00491126
0.00496439
0.00501938
0.00507388
0.00512782
0.00517928
0.00417913
0.00424725
0.00432875
0.0044114
0.00447867
0.0045399
0.00460304
0.00467058
0.00473353
0.00479682
0.00485657
0.00495156
0.00499632
0.00503739
0.00507614
0.00511643
0.0051577
0.00519835
0.00523768
0.00415021
0.00421828
0.00429846
0.00438176
0.00445235
0.00451726
0.00458475
0.00465266
0.00471876
0.00478283
0.00484341
0.0049429
0.00498775
0.00502921
0.0050708
0.00511459
0.00515766
0.00519951
0.00524018
0.00448773
0.00454665
0.00461406
0.00468191
0.00474347
0.004787
0.00482505
0.00487123
0.00492336
0.00496821
0.00500984
0.00509302
0.00512648
0.00515678
0.00518549
0.00521404
0.00524411
0.0052734
0.00530134
0.00446435
0.00452952
0.00460253
0.00466691
0.00472158
0.0047683
0.00481368
0.00486097
0.00491042
0.00495792
0.00500172
0.00508738
0.00512116
0.00515097
0.00518112
0.00521252
0.00524372
0.00527361
0.00530273
0.00484936
0.00490041
0.0049383
0.0049698
0.00500117
0.00503439
0.00506525
0.00509079
0.0051164
0.00514178
0.00516908
0.00523654
0.00525713
0.00527549
0.00529335
0.0053108
0.00532886
0.00534696
0.00536375
0.00482748
0.00487718
0.00492203
0.00496076
0.00499486
0.00502572
0.00505433
0.00508173
0.00510847
0.00513666
0.00516428
0.00523341
0.00525438
0.00527272
0.00529106
0.00530997
0.00532895
0.00534758
0.00536488
0.00521484
0.00523765
0.00525246
0.00526584
0.00527711
0.00528528
0.0052966
0.00530921
0.00531589
0.00536714
0.00537326
0.00538023
0.00538646
0.00539255
0.00539839
0.0054052
0.00541096
0.00541756
0.00542372
0.00520023
0.00522448
0.00524369
0.00525729
0.0052706
0.00528321
0.00529475
0.00530339
0.00531047
0.0053662
0.00537204
0.00537936
0.00538566
0.00539212
0.00539822
0.00540514
0.00541154
0.00541857
0.00542488
0.00296596
0.00300796
0.00305744
0.00311474
0.00317844
0.00325135
0.00332175
0.00339471
0.00347041
0.00354639
0.00362265
0.00370232
0.00378424
0.00386823
0.00395739
0.00405031
0.00414147
0.0042309
0.00432406
0.00301561
0.00305361
0.00310178
0.00316155
0.00322668
0.00330251
0.00337255
0.00344401
0.00351769
0.00359282
0.00367024
0.00375112
0.00383451
0.00392064
0.00401153
0.00410519
0.00419685
0.0042884
0.00438432
0.003072
0.00310705
0.00315311
0.0032133
0.00328073
0.00335858
0.00342706
0.00349687
0.0035687
0.00364294
0.00372091
0.00380274
0.00388703
0.00397507
0.00406765
0.00416055
0.00425149
0.00434502
0.0044442
0.0031406
0.00317153
0.00321619
0.00327655
0.00335159
0.00341836
0.00348555
0.00355432
0.00362524
0.00369929
0.00377713
0.00385882
0.00394337
0.0040317
0.00412456
0.0042171
0.0043084
0.00440369
0.00450474
0.00321486
0.00324148
0.00328817
0.00334936
0.00342089
0.00348495
0.00355052
0.00361706
0.00368639
0.0037605
0.00383806
0.00391864
0.00400327
0.00409162
0.00418332
0.00427601
0.00436884
0.00446531
0.00456694
0.00328701
0.00331646
0.00337222
0.00343364
0.00349594
0.00355823
0.00362147
0.00368564
0.0037526
0.00382537
0.00390244
0.00398219
0.00406603
0.00415358
0.00424449
0.00433802
0.00443235
0.00452896
0.00462966
0.00336996
0.00339699
0.00344275
0.00350132
0.00357667
0.00363757
0.00369856
0.00376071
0.00382574
0.00389663
0.0039722
0.00405074
0.00413313
0.00421975
0.00431045
0.00440454
0.00449915
0.00459484
0.00469331
0.00345103
0.00347727
0.00352413
0.00358423
0.00366179
0.00372177
0.00378132
0.0038415
0.00390487
0.00397451
0.00404873
0.00412525
0.00420647
0.00429325
0.00438424
0.00447808
0.00457127
0.00466359
0.00475734
0.00353428
0.00356365
0.00361086
0.00367136
0.00375134
0.00381095
0.0038693
0.00392878
0.00399186
0.00406053
0.00413434
0.00420991
0.00429071
0.00437769
0.0044672
0.00455907
0.00464974
0.00473587
0.00482157
0.00361918
0.0036508
0.00370063
0.00376429
0.00382425
0.00388301
0.0039657
0.0040264
0.00409036
0.0041589
0.00423316
0.00430994
0.00438966
0.00447394
0.00455893
0.00464491
0.00473065
0.00480978
0.00488624
0.00371133
0.00374262
0.00379901
0.00386155
0.00392193
0.00398344
0.00407619
0.00413945
0.00420385
0.00427185
0.00434559
0.00442252
0.0044993
0.00457743
0.00465519
0.00473208
0.00480934
0.0048818
0.00495028
0.00382202
0.00386094
0.0039095
0.00396986
0.00403335
0.004099
0.00416227
0.00422729
0.00433542
0.00440143
0.00447016
0.00454258
0.00461449
0.00468468
0.004753
0.00481965
0.0048865
0.0049515
0.00501317
0.00396082
0.00399617
0.00404241
0.00415252
0.00417565
0.0042423
0.00430739
0.00437163
0.0044796
0.00454228
0.00460403
0.00466703
0.00473036
0.0047914
0.00484952
0.00490616
0.00496324
0.00501967
0.00507409
0.00413502
0.00416631
0.00421025
0.00427271
0.00434016
0.00440445
0.00447568
0.00457539
0.00463093
0.00468508
0.00473844
0.00479129
0.00484297
0.0048935
0.00494236
0.0049901
0.00503815
0.00508625
0.005133
0.0043436
0.00436932
0.00440925
0.00446723
0.00453034
0.00458649
0.00464514
0.00473582
0.00478282
0.00482606
0.00486823
0.00491139
0.0049531
0.00499339
0.00503376
0.00507309
0.00511211
0.00515171
0.00519077
0.00457309
0.00459173
0.0046338
0.00467664
0.00472863
0.00477221
0.00481226
0.00489263
0.00493007
0.00496487
0.00499687
0.00502914
0.00506183
0.00509373
0.00512521
0.00515609
0.00518648
0.00521719
0.00524817
0.00480126
0.00482561
0.00485584
0.00488959
0.00492327
0.00495123
0.00498006
0.00505126
0.00507706
0.00510193
0.00512556
0.00514829
0.00517104
0.00519436
0.00521698
0.00523907
0.00526123
0.00528353
0.00530602
0.00505081
0.0050649
0.00507863
0.00509667
0.00511633
0.00513362
0.00515093
0.00521209
0.00522714
0.00524084
0.00525487
0.00526876
0.0052821
0.00529589
0.00530969
0.00532281
0.00533626
0.00534995
0.00536342
0.00529144
0.00529658
0.005301
0.00535478
0.00535946
0.00531983
0.00532688
0.0053728
0.00537708
0.00538078
0.00538472
0.00538905
0.00539311
0.00539731
0.0054019
0.00540614
0.00541023
0.00541483
0.00541908
0.00286484
0.00290424
0.00295639
0.00302208
0.00308641
0.00315943
0.00324725
0.00332627
0.00340809
0.00349095
0.00357519
0.00366169
0.0037508
0.00384625
0.00394532
0.004042
0.00413862
0.00423936
0.00434388
0.00291258
0.0029505
0.00300326
0.00306593
0.00313491
0.00320903
0.00329843
0.00337518
0.00345487
0.00353736
0.00362321
0.00371055
0.00380063
0.00389804
0.00399867
0.0040963
0.00419458
0.00429681
0.00440241
0.00296889
0.00300508
0.00305561
0.00312019
0.00319053
0.00326534
0.00335407
0.00342792
0.00350591
0.00358815
0.00367488
0.00376316
0.00385363
0.00395209
0.00405319
0.00415021
0.00424946
0.00435481
0.00446293
0.00303605
0.00306866
0.00311722
0.00318279
0.00325285
0.00332588
0.00341501
0.00348694
0.00356321
0.00364553
0.00373188
0.00382012
0.00391074
0.00400883
0.00410985
0.00420694
0.00430713
0.00441435
0.00452441
0.00311481
0.00314405
0.00319012
0.00325504
0.00332265
0.00339315
0.00348235
0.00355182
0.00362592
0.00370811
0.00379366
0.00388104
0.00397207
0.00406867
0.00416892
0.00426763
0.00436871
0.00447585
0.00458575
0.00319114
0.0032231
0.00327108
0.00333404
0.0034001
0.00346761
0.00355507
0.00362206
0.00369446
0.00377533
0.00385952
0.00394555
0.00403616
0.00413142
0.0042309
0.00433137
0.00443276
0.00453889
0.00464761
0.00327925
0.00330883
0.0033564
0.00341815
0.00350267
0.0035696
0.00363481
0.00370015
0.00377081
0.00384916
0.00393086
0.00401522
0.00410459
0.00419901
0.00429811
0.00439868
0.00449955
0.00460403
0.00470949
0.00336356
0.00339315
0.00344088
0.00350391
0.00356816
0.0036335
0.00372116
0.0037855
0.00385308
0.00392902
0.00400897
0.00409166
0.0041803
0.00427421
0.00437283
0.00447255
0.00457106
0.00467121
0.00477087
0.00344944
0.00348215
0.00353266
0.00359639
0.00365972
0.00372426
0.00381314
0.00387733
0.00394347
0.00401784
0.00409697
0.00417857
0.0042669
0.00435986
0.00445693
0.00455452
0.00464801
0.00474031
0.00483205
0.00354021
0.003574
0.00362677
0.003693
0.00375737
0.00382202
0.00388518
0.00394952
0.00404609
0.0041204
0.00419927
0.00428073
0.00436748
0.00445696
0.00454888
0.00464157