/*--------------------------------*- C++ -*----------------------------------*\
| =========                 |                                                 |
| \\      /  F ield         | foam-extend: Open Source CFD                    |
|  \\    /   O peration     | Version:     3.1                                |
|   \\  /    A nd           | Web:         http://www.extend-project.de       |
|    \\/     M anipulation  |                                                 |
\*---------------------------------------------------------------------------*/
FoamFile
{
    version     2.0;
    format      ascii;
    class       regIOobject;
    location    "345600/uniform";
    object      profilingInfo;
}
// * * * * * * * * * * * * * * * * * * * * * * * * * * * * * * * * * * * * * //

profilingInfo
(

    {
        id              10;
        parentId        8;
        description     "Foam::Time::writeObject - outputTime";
        calls           100;
        totalTime       189.414;
        childTime       0;
        onStack         1;
    }

    {
        id              8;
        parentId        1;
        description     "Foam::Time::writeObject";
        calls           1050;
        totalTime       189.42;
        childTime       189.414;
        onStack         1;
    }

    {
        id              1;
        description     "application::main";
        calls           1;
        totalTime       1117.26;
        childTime       251.66;
        onStack         1;
    }

    {
        id              3;
        parentId        2;
        description     "functionObjectList::read";
        calls           1;
        totalTime       3.1e-05;
        childTime       0;
        onStack         0;
    }

    {
        id              9;
        parentId        1;
        description     "functionObjects_.execute()";
        calls           999;
        totalTime       0.003864;
        childTime       0;
        onStack         0;
    }

    {
        id              2;
        parentId        1;
        description     "functionObjects_.start()";
        calls           1;
        totalTime       7.2e-05;
        childTime       3.1e-05;
        onStack         0;
    }

    {
        id              4;
        parentId        1;
        description     "fvMatrix::solve_DU";
        calls           11927;
        totalTime       62.2355;
        childTime       54.2772;
        onStack         0;
    }

    {
        id              5;
        parentId        4;
        description     "lduMatrix::solver_DUx";
        calls           11927;
        totalTime       18.3193;
        childTime       0;
        onStack         0;
    }

    {
        id              6;
        parentId        4;
        description     "lduMatrix::solver_DUy";
        calls           11927;
        totalTime       19.2511;
        childTime       0;
        onStack         0;
    }

    {
        id              7;
        parentId        4;
        description     "lduMatrix::solver_DUz";
        calls           11927;
        totalTime       16.7068;
        childTime       0;
        onStack         0;
    }
);


// ************************************************************************* //
