/*--------------------------------*- C++ -*----------------------------------*\
| =========                 |                                                 |
| \\      /  F ield         | foam-extend: Open Source CFD                    |
|  \\    /   O peration     | Version:     3.1                                |
|   \\  /    A nd           | Web:         http://www.extend-project.de       |
|    \\/     M anipulation  |                                                 |
\*---------------------------------------------------------------------------*/
FoamFile
{
    version     2.0;
    format      ascii;
    class       volSymmTensorField;
    location    "172800";
    object      DEpsilon;
}
// * * * * * * * * * * * * * * * * * * * * * * * * * * * * * * * * * * * * * //

dimensions      [0 0 0 0 0 0 0];

internalField   nonuniform List<symmTensor> 
21211
(
(0.00022881 -3.53979e-08 3.62115e-06 -4.58983e-07 -3.1671e-07 3.54477e-05)
(0.000228839 -4.2997e-08 3.62267e-06 -2.63521e-08 -1.80866e-07 3.53435e-05)
(0.000228895 -2.49995e-08 3.60861e-06 1.09156e-07 -2.83383e-07 3.53489e-05)
(0.000228732 8.35046e-08 3.46124e-06 3.81016e-07 -6.47969e-07 3.5591e-05)
(0.000227717 -6.10476e-08 3.3642e-06 1.40804e-06 -1.86357e-06 3.60391e-05)
(0.000228294 -8.0111e-07 3.16781e-06 3.10676e-06 -5.13164e-06 3.66144e-05)
(0.000228448 -1.41235e-06 2.69139e-06 7.76963e-06 -1.27964e-05 3.79306e-05)
(0.000227333 -4.31188e-06 2.07317e-06 2.26882e-05 -3.17161e-05 3.84452e-05)
(0.000227453 -2.00963e-05 1.73349e-06 9.74898e-05 -6.24654e-05 4.45326e-06)
(0.00019163 -1.63901e-08 -8.01135e-05 1.17623e-06 3.97639e-08 0.000156653)
(0.000191678 -2.67917e-08 -8.0129e-05 1.41469e-07 8.57493e-08 0.000156821)
(0.000191769 5.64033e-08 -8.01351e-05 2.47535e-07 1.17465e-07 0.0001568)
(0.000191699 3.0324e-07 -8.00072e-05 9.04723e-07 1.88223e-07 0.000156629)
(0.000191283 2.91219e-07 -7.97271e-05 2.68848e-06 7.29934e-07 0.000156401)
(0.00019143 2.44259e-07 -7.98684e-05 6.59405e-06 2.17788e-06 0.000155948)
(0.000191622 1.02399e-06 -7.99465e-05 1.71551e-05 5.5625e-06 0.000154708)
(0.000191259 2.43948e-06 -7.96126e-05 4.4778e-05 1.73406e-05 0.000152818)
(0.000190226 6.06071e-06 -7.86484e-05 9.76596e-05 6.60774e-05 0.000168431)
(0.000215582 1.11295e-08 2.05962e-05 -6.97677e-07 -2.62118e-07 5.28777e-05)
(0.000215582 -2.46887e-09 2.05829e-05 -2.50073e-08 -1.64772e-07 5.27421e-05)
(0.000215578 -3.73495e-09 2.05492e-05 1.64531e-07 -3.15975e-07 5.27486e-05)
(0.000215542 -3.53773e-08 2.04644e-05 4.75833e-07 -7.81633e-07 5.28728e-05)
(0.000215489 -1.33563e-07 2.04563e-05 1.268e-06 -2.04155e-06 5.3053e-05)
(0.000215476 -2.9438e-07 2.02717e-05 3.24167e-06 -5.31998e-06 5.36485e-05)
(0.000215421 -8.04396e-07 1.97966e-05 8.39209e-06 -1.36693e-05 5.49885e-05)
(0.000215249 -2.41154e-06 1.92013e-05 2.40272e-05 -3.45289e-05 5.54071e-05)
(0.000215515 -1.33489e-05 1.88854e-05 9.75016e-05 -7.49255e-05 2.90479e-05)
(0.000204317 -1.31334e-09 -6.37535e-05 1.19277e-06 -8.3175e-08 0.000136997)
(0.000204326 1.52047e-08 -6.37597e-05 1.63297e-07 5.68765e-08 0.000137193)
(0.00020432 5.89347e-08 -6.37519e-05 3.55316e-07 1.25732e-07 0.000137189)
(0.000204286 1.13071e-07 -6.37776e-05 9.91814e-07 3.06624e-07 0.000137139)
(0.000204205 8.67683e-08 -6.37943e-05 2.64636e-06 8.51238e-07 0.000136935)
(0.00020414 2.15529e-07 -6.37763e-05 6.94034e-06 2.19952e-06 0.000136424)
(0.000203984 6.31022e-07 -6.37341e-05 1.84078e-05 5.85413e-06 0.000135137)
(0.000203486 1.66608e-06 -6.39873e-05 4.83606e-05 1.76576e-05 0.000133117)
(0.000203633 4.16882e-06 -6.6226e-05 0.000111695 5.847e-05 0.000143345)
(0.000227989 -1.18548e-08 4.1209e-05 -1.09652e-06 -2.96047e-07 4.65215e-05)
(0.000227977 2.86567e-09 4.1193e-05 -4.71676e-08 -1.82679e-07 4.63498e-05)
(0.000227973 8.59898e-09 4.1161e-05 1.78206e-07 -3.4564e-07 4.63565e-05)
(0.000227964 -1.24393e-09 4.1061e-05 4.96179e-07 -8.41743e-07 4.65073e-05)
(0.000227966 -2.85501e-08 4.10662e-05 1.30799e-06 -2.15115e-06 4.67344e-05)
(0.000227966 6.83015e-09 4.08598e-05 3.35533e-06 -5.53884e-06 4.73392e-05)
(0.000227927 -5.3857e-08 4.03384e-05 8.62019e-06 -1.41961e-05 4.87738e-05)
(0.000227952 -8.11473e-07 3.99705e-05 2.40982e-05 -3.56846e-05 4.96736e-05)
(0.000228186 -9.87376e-06 4.21102e-05 9.32929e-05 -7.89918e-05 2.75441e-05)
(0.000222313 2.46037e-08 -5.9071e-05 1.08304e-06 -1.84073e-07 0.000128889)
(0.000222314 1.20472e-08 -5.90848e-05 1.39077e-07 4.81777e-08 0.000129108)
(0.000222315 3.9737e-08 -5.90722e-05 3.75352e-07 1.46925e-07 0.000129089)
(0.000222304 8.12896e-08 -5.91041e-05 1.03396e-06 3.35992e-07 0.000129036)
(0.000222282 3.18756e-08 -5.91254e-05 2.72626e-06 9.0619e-07 0.000128825)
(0.000222255 9.91908e-08 -5.9079e-05 7.14479e-06 2.32861e-06 0.000128291)
(0.000222212 2.03434e-07 -5.89333e-05 1.88184e-05 6.12393e-06 0.00012694)
(0.000222134 1.59322e-07 -5.88947e-05 4.88383e-05 1.78264e-05 0.000124755)
(0.000221763 -8.55916e-07 -5.90405e-05 0.00011268 5.88069e-05 0.000133175)
(0.000224436 -2.02238e-08 5.83285e-05 -8.40906e-07 -1.25294e-07 6.39259e-05)
(0.000224437 8.85557e-09 5.8333e-05 4.07455e-09 -1.67753e-07 6.38224e-05)
(0.000224444 2.85711e-08 5.82999e-05 1.9042e-07 -3.57265e-07 6.38527e-05)
(0.000224456 4.74026e-08 5.82148e-05 5.21298e-07 -8.72977e-07 6.397e-05)
(0.000224473 1.15343e-07 5.82031e-05 1.35747e-06 -2.2254e-06 6.42023e-05)
(0.000224533 3.71673e-07 5.79242e-05 3.4932e-06 -5.70816e-06 6.47919e-05)
(0.000224702 8.35379e-07 5.72282e-05 9.04702e-06 -1.46209e-05 6.61019e-05)
(0.000224931 1.71524e-06 5.65433e-05 2.5616e-05 -3.69745e-05 6.69424e-05)
(0.000224387 -4.03274e-06 5.91263e-05 0.000100704 -8.16682e-05 4.53469e-05)
(0.000228929 6.19846e-08 -5.25886e-05 5.78898e-07 -2.80525e-07 0.000136372)
(0.000228948 1.45695e-08 -5.26129e-05 1.36133e-07 2.12821e-08 0.000136512)
(0.000228956 3.0333e-08 -5.2607e-05 3.948e-07 1.48853e-07 0.000136489)
(0.000228947 4.64839e-08 -5.26353e-05 1.08859e-06 3.64647e-07 0.000136425)
(0.000228961 -2.14036e-08 -5.26323e-05 2.84956e-06 9.57781e-07 0.0001362)
(0.000228973 -2.06607e-08 -5.25334e-05 7.4644e-06 2.46265e-06 0.000135659)
(0.000228953 -8.64396e-08 -5.22839e-05 1.9711e-05 6.52045e-06 0.000134327)
(0.00022869 -5.23932e-07 -5.2068e-05 5.16702e-05 1.87583e-05 0.000132067)
(0.000226552 -3.08691e-06 -5.35844e-05 0.000121359 5.8355e-05 0.00014207)
(0.000220115 1.53178e-08 8.43162e-05 -1.25163e-06 -1.23185e-07 7.52749e-05)
(0.000220113 3.45089e-08 8.42997e-05 -1.53993e-08 -1.88613e-07 7.51538e-05)
(0.000220117 6.28217e-08 8.42502e-05 2.03581e-07 -3.85583e-07 7.51907e-05)
(0.000220129 1.36361e-07 8.41416e-05 5.66172e-07 -9.24244e-07 7.52952e-05)
(0.000220154 3.27276e-07 8.41033e-05 1.47422e-06 -2.36934e-06 7.55133e-05)
(0.000220238 8.76898e-07 8.37399e-05 3.76764e-06 -6.06904e-06 7.60492e-05)
(0.000220352 2.19281e-06 8.28534e-05 9.69532e-06 -1.55001e-05 7.72927e-05)
(0.000220417 4.7893e-06 8.21655e-05 2.72455e-05 -3.89849e-05 7.77204e-05)
(0.000219904 5.49602e-06 8.5237e-05 0.000101969 -8.9451e-05 5.83255e-05)
(0.000241897 1.27689e-07 -2.73166e-05 -1.10227e-07 -3.42448e-07 0.000122665)
(0.000241894 2.53146e-08 -2.73282e-05 6.01774e-08 1.8094e-08 0.000122772)
(0.000241878 2.01455e-08 -2.73211e-05 4.17186e-07 1.57277e-07 0.000122741)
(0.000241846 2.42221e-09 -2.73701e-05 1.17121e-06 3.93508e-07 0.000122687)
(0.000241813 -7.29359e-08 -2.73748e-05 3.06906e-06 1.01438e-06 0.000122474)
(0.000241757 -1.7545e-07 -2.7244e-05 8.00235e-06 2.59951e-06 0.000121914)
(0.000241619 -5.90563e-07 -2.68667e-05 2.10037e-05 6.82115e-06 0.0001205)
(0.000241377 -2.3901e-06 -2.64615e-05 5.44064e-05 1.92025e-05 0.000118117)
(0.000241088 -1.04543e-05 -2.77953e-05 0.000126343 5.70832e-05 0.000126367)
(0.000208804 -7.11392e-08 0.000106167 -8.0529e-07 -5.05152e-08 0.000121343)
(0.000208793 2.4778e-08 0.000106168 3.75781e-08 -1.90185e-07 0.000121321)
(0.000208808 7.45926e-08 0.000106133 2.10345e-07 -3.97088e-07 0.000121383)
(0.000208851 1.398e-07 0.000106075 5.72854e-07 -9.75614e-07 0.000121479)
(0.000208853 4.07594e-07 0.000105994 1.49576e-06 -2.44898e-06 0.000121696)
(0.000209008 1.15478e-06 0.000105613 3.82157e-06 -6.19484e-06 0.000122274)
(0.000209525 2.61149e-06 0.000104724 9.8636e-06 -1.59252e-05 0.00012352)
(0.000210026 6.36073e-06 0.000103517 2.74395e-05 -3.98276e-05 0.000124553)
(0.000209637 9.74234e-06 0.000106209 0.000100028 -9.20111e-05 0.000109995)
(0.000255819 1.22061e-07 -1.21112e-05 -7.74777e-07 -3.28081e-07 0.000120477)
(0.000255821 1.01789e-08 -1.21002e-05 3.08484e-08 7.95216e-09 0.000120475)
(0.000255814 -1.37638e-08 -1.2087e-05 4.38681e-07 1.60151e-07 0.000120423)
(0.000255802 -5.36972e-08 -1.20668e-05 1.2402e-06 4.01789e-07 0.000120321)
(0.000255786 -1.29077e-07 -1.20305e-05 3.24677e-06 1.02972e-06 0.000120049)
(0.000255703 -3.07726e-07 -1.18794e-05 8.42401e-06 2.65252e-06 0.000119485)
(0.000255554 -8.5763e-07 -1.15427e-05 2.20076e-05 6.88099e-06 0.000118062)
(0.000255319 -2.87013e-06 -1.11677e-05 5.71086e-05 1.89551e-05 0.000115397)
(0.000254889 -1.03566e-05 -1.3053e-05 0.000134878 5.2927e-05 0.000122902)
(0.000224849 -2.6166e-08 0.000130981 -5.10631e-07 -1.53603e-09 4.80386e-05)
(0.000224886 5.57771e-08 0.000130924 7.51162e-08 -2.13714e-07 4.808e-05)
(0.00022491 1.14452e-07 0.000130866 2.48659e-07 -4.45596e-07 4.81518e-05)
(0.000224944 2.7345e-07 0.00013075 6.6167e-07 -1.07024e-06 4.82632e-05)
(0.000225064 6.76675e-07 0.000130666 1.71686e-06 -2.68358e-06 4.84272e-05)
(0.000225176 1.69234e-06 0.000130206 4.32919e-06 -6.84382e-06 4.90748e-05)
(0.000225471 4.23014e-06 0.000128753 1.10632e-05 -1.73695e-05 5.04519e-05)
(0.00022576 9.58246e-06 0.000127619 3.08811e-05 -4.33249e-05 5.09341e-05)
(0.000222982 1.03736e-05 0.000133562 0.000115843 -9.71362e-05 3.20368e-05)
(0.000276055 8.89616e-08 -1.46142e-05 -1.59865e-06 -1.32858e-07 0.000108736)
(0.000276019 -1.89705e-09 -1.45478e-05 -4.32851e-09 5.3071e-08 0.000108651)
(0.000276001 -2.38403e-08 -1.45145e-05 4.83228e-07 1.93737e-07 0.000108591)
(0.000275977 -6.82508e-08 -1.44614e-05 1.34839e-06 4.83099e-07 0.000108491)
(0.000275945 -2.0074e-07 -1.43566e-05 3.47988e-06 1.21401e-06 0.000108256)
(0.000275817 -5.08344e-07 -1.41711e-05 8.98376e-06 3.0596e-06 0.000107676)
(0.000275442 -1.43573e-06 -1.35386e-05 2.34254e-05 7.92137e-06 0.00010623)
(0.00027463 -4.84357e-06 -1.25443e-05 6.03702e-05 2.19332e-05 0.000104119)
(0.000274367 -1.54135e-05 -1.41052e-05 0.000138787 6.3416e-05 0.000114762)
(0.000194338 -4.71746e-08 0.000136676 -2.12435e-07 -4.5741e-08 0.000167135)
(0.000194308 5.64462e-08 0.00013664 9.80402e-08 -1.92094e-07 0.000167203)
(0.000194274 1.46291e-07 0.000136554 2.62298e-07 -4.20657e-07 0.000167276)
(0.000194314 3.29363e-07 0.000136463 6.76994e-07 -1.06031e-06 0.000167361)
(0.000194461 7.76189e-07 0.000136308 1.70732e-06 -2.70833e-06 0.000167559)
(0.000194679 1.99871e-06 0.00013597 4.30828e-06 -6.79228e-06 0.00016805)
(0.000195545 4.8038e-06 0.000135108 1.09372e-05 -1.70341e-05 0.000169059)
(0.000196377 1.14384e-05 0.000134538 3.06672e-05 -4.159e-05 0.000168756)
(0.000193003 1.8979e-05 0.000143251 0.000114125 -9.22917e-05 0.000149509)
(0.000281465 -2.42745e-09 1.48882e-05 -1.80887e-06 -9.54124e-09 0.000128428)
(0.000281414 -3.29254e-08 1.49486e-05 1.81721e-08 6.38363e-08 0.000128274)
(0.000281361 -5.47072e-08 1.49561e-05 5.38335e-07 1.85315e-07 0.000128218)
(0.000281313 -1.11161e-07 1.49825e-05 1.45104e-06 4.73666e-07 0.000128132)
(0.000281266 -2.8952e-07 1.50649e-05 3.70519e-06 1.17907e-06 0.000127896)
(0.000281181 -7.39624e-07 1.52624e-05 9.47859e-06 2.98489e-06 0.000127256)
(0.000280961 -2.00427e-06 1.57139e-05 2.42916e-05 7.75499e-06 0.000125861)
(0.0002806 -6.36715e-06 1.61802e-05 6.12842e-05 2.15064e-05 0.000123894)
(0.000279795 -2.03096e-05 1.18692e-05 0.000139447 6.09854e-05 0.000134834)
(0.000206869 -3.60245e-08 0.000165672 3.36343e-07 1.15617e-09 0.000108351)
(0.000206919 3.42663e-08 0.000165604 1.50809e-07 -1.95555e-07 0.000108446)
(0.000206786 1.04599e-07 0.000165621 2.99025e-07 -4.7884e-07 0.000108632)
(0.000206861 3.93757e-07 0.000165494 7.56284e-07 -1.15377e-06 0.000108741)
(0.00020703 1.00405e-06 0.000165208 1.88781e-06 -2.89675e-06 0.000108969)
(0.000207391 2.48109e-06 0.000164759 4.72143e-06 -7.25166e-06 0.000109498)
(0.00020803 6.14567e-06 0.000163245 1.19236e-05 -1.80504e-05 0.000110642)
(0.000208499 1.39652e-05 0.000162594 3.35979e-05 -4.41269e-05 0.000110067)
(0.000203332 1.99434e-05 0.000172123 0.00012653 -9.75487e-05 8.87744e-05)
(0.000307239 -1.77152e-07 6.95106e-06 -1.29454e-06 1.83157e-07 0.000124155)
(0.00030718 -1.0563e-07 7.03842e-06 1.46877e-07 1.07552e-07 0.000124052)
(0.00030718 -1.10262e-07 6.98375e-06 6.09921e-07 2.097e-07 0.000123979)
(0.000307155 -1.46285e-07 7.00633e-06 1.55256e-06 5.40524e-07 0.000123884)
(0.000307074 -3.56066e-07 7.15132e-06 3.93196e-06 1.32658e-06 0.000123651)
(0.000306868 -9.42563e-07 7.47179e-06 1.0056e-05 3.30365e-06 0.000123027)
(0.000306303 -2.556e-06 8.18285e-06 2.58274e-05 8.65387e-06 0.0001216)
(0.000305272 -8.13864e-06 9.20549e-06 6.49356e-05 2.38823e-05 0.000120291)
(0.000304808 -2.46995e-05 5.25736e-06 0.000146815 6.54711e-05 0.000132531)
(0.000180722 5.6332e-08 0.000204635 2.80108e-07 -1.66606e-07 0.000172312)
(0.000180738 7.03925e-08 0.000204625 1.44992e-07 -2.25389e-07 0.000172319)
(0.000180646 1.61026e-07 0.00020488 3.25087e-07 -5.33229e-07 0.000172484)
(0.000180789 5.23876e-07 0.000204806 7.94107e-07 -1.2126e-06 0.00017256)
(0.000181021 1.22731e-06 0.000204525 1.94133e-06 -3.001e-06 0.000172735)
(0.00018144 2.76872e-06 0.000204007 4.73272e-06 -7.67406e-06 0.000173481)
(0.000180712 6.86222e-06 0.00020118 1.34563e-05 -1.92314e-05 0.000174599)
(0.000183382 1.8201e-05 0.000202614 3.58444e-05 -4.3943e-05 0.000173054)
(0.000174257 2.06579e-05 0.00021719 0.000140024 -9.75706e-05 0.000147148)
(0.000319304 -2.20688e-07 3.74038e-05 -7.60846e-07 4.94203e-07 0.000128866)
(0.000319279 -1.00399e-07 3.74647e-05 2.7624e-07 1.93508e-07 0.000128754)
(0.000319359 -1.16262e-07 3.74574e-05 6.97571e-07 2.49828e-07 0.000128675)
(0.000319357 -1.69965e-07 3.75261e-05 1.69342e-06 5.95247e-07 0.000128593)
(0.000319259 -4.61685e-07 3.76896e-05 4.20037e-06 1.38283e-06 0.000128384)
(0.000318903 -1.35491e-06 3.79267e-05 1.07671e-05 3.24315e-06 0.000127683)
(0.000318064 -3.57564e-06 3.84192e-05 2.7729e-05 9.01088e-06 0.0001259)
(0.000317609 -1.14192e-05 3.93129e-05 6.63601e-05 2.59581e-05 0.000125947)
(0.000318512 -3.62815e-05 3.36808e-05 0.000141855 7.148e-05 0.000142352)
(0.000153956 6.78837e-08 0.000197054 6.68722e-07 -2.74506e-07 0.000203907)
(0.000154038 1.49287e-07 0.000196994 1.4651e-07 -2.56334e-07 0.000203944)
(0.000153957 3.13341e-07 0.000197156 4.00038e-07 -5.56815e-07 0.000203976)
(0.000154072 7.45138e-07 0.000197058 9.84574e-07 -1.36341e-06 0.000204005)
(0.000154373 1.73101e-06 0.000196758 2.53718e-06 -3.39501e-06 0.000204048)
(0.000153079 1.13031e-06 0.000198006 8.9636e-06 -8.00093e-06 0.000204169)
(0.000305045 5.62671e-06 9.70169e-05 2.67748e-05 -1.03286e-05 0.000148144)
(0.000147906 2.08836e-05 0.000208061 4.81644e-05 -4.6995e-05 0.000199315)
(0.000143675 2.56671e-05 0.000213776 0.000157135 -9.4605e-05 0.000172994)
(0.000313103 -3.53141e-07 6.18222e-05 4.02637e-07 4.129e-07 0.000145251)
(0.000313092 -1.12088e-07 6.18631e-05 4.05961e-07 1.94095e-07 0.000145182)
(0.000313073 -1.0885e-07 6.19165e-05 8.48972e-07 2.86389e-07 0.000145159)
(0.000312983 -2.50728e-07 6.20087e-05 2.09496e-06 6.88329e-07 0.00014509)
(0.000312795 -8.65764e-07 6.21881e-05 5.31485e-06 1.73142e-06 0.000144921)
(0.000313735 -3.5893e-06 6.19479e-05 1.24985e-05 5.00691e-06 0.000144739)
(0.000326066 -5.15497e-06 5.52391e-05 2.2898e-05 8.16476e-06 0.000147416)
(0.000315054 -1.13149e-05 6.04878e-05 7.22906e-05 2.33524e-05 0.000144361)
(0.000315008 -3.83252e-05 5.45589e-05 0.000152211 7.56756e-05 0.000160309)
(0.000109674 1.37527e-07 0.000231828 1.91154e-07 -1.80297e-07 0.000284852)
(0.000109714 1.68968e-07 0.000231797 1.55743e-07 -2.35487e-07 0.000284811)
(0.000109803 3.71854e-07 0.00023176 4.29304e-07 -5.70013e-07 0.000284761)
(0.000110016 8.92341e-07 0.000231623 1.02383e-06 -1.39177e-06 0.000284712)
(0.000110581 2.14919e-06 0.000231285 2.30359e-06 -3.31349e-06 0.000284639)
(0.00011338 7.05447e-06 0.000229542 3.25182e-06 -7.15064e-06 0.000284045)
(8.24435e-05 1.29452e-05 0.000173832 2.06519e-05 -1.84728e-05 0.000263151)
(0.000123719 2.0095e-05 0.000222364 4.00932e-05 -4.85816e-05 0.000277007)
(9.73331e-05 2.71861e-05 0.000250587 0.000163403 -9.86347e-05 0.000251767)
(0.000322316 -1.53382e-07 8.73369e-05 9.05818e-07 2.1727e-07 0.000163751)
(0.000322343 -8.40193e-08 8.73081e-05 4.87422e-07 1.7614e-07 0.000163745)
(0.000322304 -1.43865e-07 8.73368e-05 9.12396e-07 3.04728e-07 0.000163751)
(0.000322213 -3.3588e-07 8.74418e-05 2.11208e-06 6.94702e-07 0.000163729)
(0.000322019 -6.68476e-07 8.77264e-05 4.98581e-06 1.62088e-06 0.000163657)
(0.000320937 -1.11107e-06 8.86245e-05 1.25063e-05 3.56749e-06 0.00016347)
(0.000316978 -5.55167e-06 9.26561e-05 3.24672e-05 9.51435e-06 0.000162246)
(0.000317637 -1.95948e-05 9.03674e-05 7.50716e-05 2.85041e-05 0.000163579)
(0.000323031 -5.50516e-05 7.57348e-05 0.00015784 7.3565e-05 0.000177967)
(6.49234e-05 1.34133e-07 0.000184826 -4.7049e-07 -2.66423e-07 0.000361474)
(6.49569e-05 2.15813e-07 0.000184898 1.02604e-07 -2.48225e-07 0.000361371)
(6.50353e-05 4.8469e-07 0.00018489 4.78076e-07 -5.93948e-07 0.000361292)
(6.52839e-05 1.17354e-06 0.000184795 1.15204e-06 -1.41448e-06 0.000361195)
(6.58955e-05 2.83459e-06 0.000184524 2.6928e-06 -3.32737e-06 0.000360995)
(6.73806e-05 6.96326e-06 0.000183683 6.31527e-06 -7.71591e-06 0.000360361)
(6.73358e-05 1.59532e-05 0.000181882 1.60728e-05 -1.8386e-05 0.000359062)
(6.65807e-05 3.35042e-05 0.000185488 4.43087e-05 -4.3885e-05 0.00035512)
(4.22719e-05 4.12755e-05 0.000209355 0.000172716 -9.19776e-05 0.00033234)
(0.000269869 -1.434e-07 0.000121296 1.48437e-06 9.80099e-08 0.000206767)
(0.000269943 -1.08609e-07 0.000121239 6.05753e-07 1.64202e-07 0.000206823)
(0.000269907 -1.84032e-07 0.000121247 1.0577e-06 3.14864e-07 0.000206833)
(0.000269766 -4.18602e-07 0.000121319 2.46028e-06 7.15488e-07 0.000206806)
(0.000269405 -9.86667e-07 0.000121496 5.90595e-06 1.65748e-06 0.000206714)
(0.000268466 -2.55292e-06 0.000121912 1.43828e-05 3.82737e-06 0.00020649)
(0.000266741 -7.59039e-06 0.000122788 3.47392e-05 9.36948e-06 0.000206141)
(0.000265832 -2.34954e-05 0.000122585 8.0349e-05 2.52187e-05 0.000207409)
(0.000277272 -6.61496e-05 0.000109688 0.000161858 6.78425e-05 0.000223309)
(2.79556e-05 2.69468e-07 0.000154376 -1.11308e-06 -2.06773e-07 0.000415584)
(2.78921e-05 2.71676e-07 0.000154479 7.70071e-08 -2.4856e-07 0.000415464)
(2.79655e-05 6.25826e-07 0.000154487 5.33443e-07 -5.9835e-07 0.000415379)
(2.82297e-05 1.48305e-06 0.000154424 1.2831e-06 -1.41197e-06 0.000415271)
(2.88494e-05 3.49251e-06 0.000154253 2.98002e-06 -3.29946e-06 0.000415065)
(3.01745e-05 8.13444e-06 0.000153889 6.91228e-06 -7.66779e-06 0.000414619)
(3.22071e-05 1.8512e-05 0.000153707 1.66133e-05 -1.7744e-05 0.000413393)
(2.99551e-05 3.99265e-05 0.000157645 4.70204e-05 -4.06463e-05 0.000408246)
(-1.98024e-06 5.54914e-05 0.000182906 0.000186208 -8.38206e-05 0.000384377)
(0.000240346 -2.20409e-08 0.000137866 1.08371e-06 2.95912e-08 0.000247401)
(0.000240425 -1.21725e-07 0.000137785 6.27243e-07 1.44385e-07 0.000247455)
(0.000240381 -2.5431e-07 0.000137786 1.18201e-06 3.04502e-07 0.000247469)
(0.000240221 -5.82832e-07 0.000137851 2.73552e-06 6.87819e-07 0.00024745)
(0.000239849 -1.38053e-06 0.000138022 6.45742e-06 1.57096e-06 0.000247386)
(0.000239028 -3.41508e-06 0.00013841 1.53485e-05 3.6363e-06 0.000247221)
(0.000237534 -9.23964e-06 0.00013905 3.63895e-05 8.95765e-06 0.000247036)
(0.000236706 -2.70651e-05 0.000138346 8.32111e-05 2.45835e-05 0.000248625)
(0.000252058 -7.39862e-05 0.000123624 0.0001641 7.0124e-05 0.000263414)
(3.60457e-06 2.57134e-07 0.000103735 -1.12718e-06 -1.59029e-07 0.000481736)
(3.43901e-06 3.02522e-07 0.000103805 1.12353e-07 -2.37435e-07 0.000481657)
(3.50668e-06 7.43789e-07 0.000103833 5.86014e-07 -5.72568e-07 0.000481584)
(3.78004e-06 1.74843e-06 0.000103818 1.37367e-06 -1.33388e-06 0.000481483)
(4.41517e-06 4.04763e-06 0.000103761 3.13479e-06 -3.06778e-06 0.000481285)
(5.72984e-06 9.26116e-06 0.00010367 7.1496e-06 -7.01095e-06 0.000480854)
(7.53914e-06 2.07882e-05 0.000104014 1.69405e-05 -1.5935e-05 0.000479685)
(4.12522e-06 4.43253e-05 0.000108322 4.69541e-05 -3.64335e-05 0.000475525)
(-3.14046e-05 6.62649e-05 0.000131628 0.000175631 -8.28978e-05 0.000458977)
(0.000204535 6.62014e-09 0.00015064 1.31008e-06 -1.59078e-09 0.000297525)
(0.000204638 -1.3613e-07 0.000150577 7.34492e-07 1.2518e-07 0.000297572)
(0.0002046 -3.10419e-07 0.000150578 1.3126e-06 2.78867e-07 0.000297582)
(0.000204426 -7.09157e-07 0.000150632 2.97175e-06 6.27018e-07 0.000297571)
(0.000204021 -1.65049e-06 0.000150775 6.90574e-06 1.41704e-06 0.000297529)
(0.000203152 -3.97853e-06 0.000151094 1.61617e-05 3.24577e-06 0.000297416)
(0.000201624 -1.03929e-05 0.000151543 3.77387e-05 7.86295e-06 0.000297292)
(0.000201119 -2.93519e-05 0.000150339 8.52772e-05 2.08961e-05 0.000298325)
(0.00021761 -7.74802e-05 0.000136245 0.000171069 5.71641e-05 0.000306036)
(-3.21803e-05 2.68761e-07 7.48523e-05 -7.97635e-07 -1.70598e-07 0.00050924)
(-3.22361e-05 3.81576e-07 7.49565e-05 1.65812e-07 -2.30546e-07 0.000509168)
(-3.21522e-05 8.92467e-07 7.4997e-05 6.51899e-07 -5.50007e-07 0.000509092)
(-3.18483e-05 2.06509e-06 7.50202e-05 1.50692e-06 -1.26525e-06 0.000508962)
(-3.1152e-05 4.72559e-06 7.5045e-05 3.40232e-06 -2.87315e-06 0.000508704)
(-2.97579e-05 1.06972e-05 7.51241e-05 7.69129e-06 -6.49239e-06 0.000508159)
(-2.81472e-05 2.37952e-05 7.57658e-05 1.81581e-05 -1.46379e-05 0.000506862)
(-3.40519e-05 5.02797e-05 8.02524e-05 5.07486e-05 -3.35271e-05 0.000503157)
(-7.76848e-05 6.39939e-05 0.000100443 0.00019504 -7.97819e-05 0.000490192)
(0.00017979 -6.90763e-08 0.000150592 1.03076e-06 3.03121e-08 0.000330534)
(0.000179868 -1.8156e-07 0.000150538 7.49075e-07 1.24122e-07 0.00033055)
(0.000179806 -3.81849e-07 0.00015053 1.42039e-06 2.57568e-07 0.000330567)
(0.000179597 -8.58134e-07 0.000150566 3.20319e-06 5.67e-07 0.000330575)
(0.00017912 -1.97146e-06 0.000150668 7.38026e-06 1.25779e-06 0.000330572)
(0.000178109 -4.70436e-06 0.000150891 1.71382e-05 2.8258e-06 0.000330534)
(0.000176353 -1.22229e-05 0.000151081 3.97444e-05 6.72596e-06 0.000330519)
(0.000175945 -3.44705e-05 0.000149121 8.90201e-05 1.77775e-05 0.000331581)
(0.000197796 -9.10512e-05 0.000133572 0.000174542 4.87155e-05 0.000338118)
(-2.71989e-05 3.7853e-07 -8.40225e-07 -8.229e-07 -1.07809e-07 0.00052297)
(-2.73326e-05 4.52326e-07 -7.91615e-07 1.70991e-07 -1.9005e-07 0.000522926)
(-2.72766e-05 1.02502e-06 -7.32831e-07 6.85202e-07 -4.44894e-07 0.000522872)
(-2.70085e-05 2.33821e-06 -6.57366e-07 1.56875e-06 -1.00868e-06 0.000522782)
(-2.63921e-05 5.27295e-06 -5.16246e-07 3.48957e-06 -2.25717e-06 0.000522607)
(-2.52611e-05 1.17391e-05 -1.86469e-07 7.77364e-06 -5.02637e-06 0.000522251)
(-2.48259e-05 2.56165e-05 8.91874e-07 1.8302e-05 -1.12208e-05 0.00052148)
(-3.63529e-05 5.29858e-05 5.32382e-06 5.26701e-05 -2.6171e-05 0.000519637)
(-0.000103683 6.68372e-05 2.30761e-05 0.0002119 -7.04663e-05 0.000512538)
(0.000128396 -1.31211e-07 0.000130849 1.27727e-06 3.85752e-08 0.000384082)
(0.000128486 -2.23424e-07 0.000130803 8.26737e-07 9.55297e-08 0.000384099)
(0.000128434 -4.37659e-07 0.000130789 1.52327e-06 1.87584e-07 0.000384106)
(0.000128223 -9.64092e-07 0.000130801 3.39469e-06 4.0346e-07 0.000384107)
(0.000127738 -2.1873e-06 0.000130851 7.72737e-06 8.76227e-07 0.000384102)
(0.000126744 -5.20279e-06 0.000130963 1.76723e-05 1.92317e-06 0.000384089)
(0.000125299 -1.37671e-05 0.000130911 4.007e-05 4.51709e-06 0.000384151)
(0.000126998 -4.05534e-05 0.000128448 8.64165e-05 1.22225e-05 0.00038502)
(0.000157288 -0.000115604 0.000113946 0.000159265 3.47876e-05 0.000387717)
(-2.17818e-05 4.15179e-07 -6.56192e-05 -7.42882e-07 -9.58172e-08 0.000523562)
(-2.19051e-05 5.11125e-07 -6.55417e-05 1.83657e-07 -1.33247e-07 0.000523552)
(-2.1869e-05 1.13455e-06 -6.54718e-05 7.10568e-07 -3.10686e-07 0.000523517)
(-2.16265e-05 2.5628e-06 -6.53541e-05 1.61753e-06 -6.94179e-07 0.00052345)
(-2.10565e-05 5.73498e-06 -6.51129e-05 3.57113e-06 -1.52424e-06 0.000523315)
(-2.00324e-05 1.26802e-05 -6.45645e-05 7.88583e-06 -3.33339e-06 0.000523039)
(-1.99126e-05 2.75266e-05 -6.31563e-05 1.83318e-05 -7.38422e-06 0.000522484)
(-3.23737e-05 5.72768e-05 -5.91226e-05 5.14736e-05 -1.77373e-05 0.000521554)
(-0.000106503 8.41965e-05 -4.61827e-05 0.000201088 -5.1399e-05 0.000520119)
(9.42459e-05 -1.87295e-07 9.80118e-05 1.25723e-06 4.06766e-08 0.000422988)
(9.43408e-05 -2.58978e-07 9.79834e-05 8.56785e-07 5.92464e-08 0.000422977)
(9.42893e-05 -4.80798e-07 9.79626e-05 1.5837e-06 1.02505e-07 0.000422979)
(9.40719e-05 -1.04208e-06 9.79491e-05 3.51275e-06 2.15116e-07 0.000422982)
(9.3567e-05 -2.33419e-06 9.79379e-05 7.95772e-06 4.6712e-07 0.000422987)
(9.25313e-05 -5.47242e-06 9.79234e-05 1.8125e-05 1.04545e-06 0.000423)
(9.10675e-05 -1.42199e-05 9.7723e-05 4.10032e-05 2.6189e-06 0.000423068)
(9.32204e-05 -4.09853e-05 9.59003e-05 8.86489e-05 8.14413e-06 0.000423446)
(0.000126716 -0.000114392 8.88572e-05 0.000164786 2.67069e-05 0.000423808)
(2.69839e-05 4.8124e-07 -0.000131145 -5.79713e-07 3.1892e-08 0.000487687)
(2.68718e-05 5.53623e-07 -0.000131145 1.8714e-07 -4.67082e-08 0.000487664)
(2.6889e-05 1.17976e-06 -0.000131074 6.98088e-07 -1.27631e-07 0.000487661)
(2.70781e-05 2.63182e-06 -0.000130939 1.58634e-06 -2.83897e-07 0.00048766)
(2.75299e-05 5.84098e-06 -0.00013066 3.48057e-06 -6.11575e-07 0.000487659)
(2.82809e-05 1.28157e-05 -0.000130056 7.62949e-06 -1.31448e-06 0.000487653)
(2.77083e-05 2.76086e-05 -0.000128788 1.76847e-05 -2.92567e-06 0.000487631)
(1.32217e-05 5.70519e-05 -0.000126771 5.04816e-05 -7.83733e-06 0.000487534)
(-6.58864e-05 7.92493e-05 -0.000124428 0.000205108 -3.67794e-05 0.000486196)
(4.86338e-05 -2.44477e-07 4.78884e-05 1.3186e-06 2.20475e-08 0.000457859)
(4.87272e-05 -2.75246e-07 4.78434e-05 8.48753e-07 1.40733e-08 0.000457868)
(4.86834e-05 -4.87946e-07 4.78224e-05 1.59538e-06 1.26088e-08 0.00045786)
(4.8483e-05 -1.04422e-06 4.77915e-05 3.54142e-06 1.70923e-08 0.000457846)
(4.80117e-05 -2.3216e-06 4.77341e-05 7.99359e-06 3.03063e-08 0.000457816)
(4.70529e-05 -5.42029e-06 4.76097e-05 1.81278e-05 6.6257e-08 0.000457751)
(4.58843e-05 -1.42129e-05 4.71649e-05 4.07753e-05 2.9725e-07 0.000457609)
(4.96642e-05 -4.2378e-05 4.49205e-05 8.70819e-05 2.37784e-06 0.000457405)
(9.0329e-05 -0.000124741 4.02971e-05 0.00015648 1.44541e-05 0.000457475)
(0.000172999 -5.84901e-08 -0.000129629 -3.47258e-07 -3.02379e-07 0.00022645)
(0.000173085 -1.11843e-07 -0.000129582 9.64838e-10 -2.09075e-07 0.000226321)
(0.000173358 -1.14819e-07 -0.000129503 4.12143e-08 -3.04835e-07 0.000226251)
(0.000173193 2.81594e-07 -0.000129624 -2.94955e-09 -6.43423e-07 0.000226746)
(0.000167907 5.74301e-07 -0.000128336 1.79698e-06 -1.66894e-06 0.000228546)
(0.000171865 -1.80196e-06 -0.000129219 2.69182e-06 -4.66252e-06 0.000227858)
(0.000173478 -1.78055e-06 -0.000128938 6.46454e-06 -1.18611e-05 0.000227714)
(0.000168832 -3.84569e-06 -0.000126709 1.98874e-05 -2.91963e-05 0.000227947)
(0.000166944 -3.98513e-06 -0.000130051 8.62721e-05 -6.60093e-05 0.000200309)
(0.000146762 2.4032e-08 -0.00011257 -5.14958e-07 -4.25305e-07 0.000208861)
(0.000146959 -4.1841e-07 -0.000112339 4.2972e-07 -2.58467e-07 0.000208298)
(0.00015185 -1.31685e-06 -0.00011298 2.9022e-09 -3.61715e-07 0.00020613)
(0.000153663 3.79113e-07 -0.000113405 -2.89898e-07 -1.72893e-06 0.000205578)
(0.000181583 7.94942e-07 -6.08865e-05 2.39666e-06 -2.39745e-06 0.000142344)
(0.00015064 1.5668e-06 -0.000113592 3.87283e-06 -3.17044e-06 0.000212776)
(0.000147675 -2.63728e-06 -0.000111872 1.11693e-05 -1.36089e-05 0.00020843)
(0.000185244 -3.0818e-06 -6.47293e-05 4.72141e-05 -6.62605e-06 0.000136533)
(0.000185269 2.27833e-06 -7.68101e-05 0.000139591 2.21388e-05 0.000109685)
(0.000168518 1.16157e-08 -8.74858e-05 -1.1773e-06 -2.89564e-07 0.000144814)
(0.000166105 1.30056e-06 -8.43285e-05 3.75414e-07 7.52228e-07 0.000143027)
(0.000153066 2.14738e-06 -0.000114507 3.2794e-07 2.30346e-07 0.000189349)
(0.00015185 -6.05851e-07 -0.000111312 -5.53928e-07 6.87507e-08 0.00018483)
(0.000120892 -9.59614e-07 -9.59074e-05 4.54829e-06 -2.35024e-06 0.000181922)
(0.000165655 -7.9997e-07 -8.42449e-05 6.35361e-06 -3.38382e-06 0.000142249)
(0.000165557 -1.13628e-06 -8.43546e-05 1.5261e-05 -5.3676e-06 0.000140624)
(0.000120981 6.70492e-08 -9.48276e-05 2.55548e-05 -3.25141e-05 0.00017988)
(0.000119568 -3.51234e-06 -0.000104449 9.75139e-05 -5.1318e-05 0.000134433)
(8.57912e-05 7.52645e-07 -9.77104e-05 1.18171e-06 -3.20888e-06 0.000259436)
(8.60124e-05 2.40622e-07 -9.75917e-05 1.57324e-06 -2.71604e-06 0.000259485)
(0.000106466 -1.61142e-06 -0.000124687 -1.0506e-06 -4.77705e-07 0.000272549)
(0.000106056 -4.11855e-07 -0.000125198 -2.14438e-07 -6.34122e-07 0.000275395)
(0.000105313 -3.50561e-07 -0.000124824 -2.78242e-07 -1.51888e-06 0.000275335)
(8.59299e-05 8.22721e-07 -9.65419e-05 4.49235e-06 -7.29064e-06 0.000260764)
(8.65501e-05 -2.81067e-06 -9.63237e-05 8.10779e-06 -1.33977e-05 0.000259746)
(0.000106889 -1.03253e-05 -0.000123166 1.55991e-05 -2.45819e-05 0.000270024)
(9.93819e-05 -6.71008e-06 -0.000139159 9.41464e-05 -3.50187e-05 0.000226605)
(9.35531e-05 -4.97175e-08 -0.000101998 1.55937e-07 -2.15071e-07 0.000282232)
(9.35877e-05 -3.9959e-10 -0.000102007 7.47377e-10 -1.781e-07 0.000282222)
(9.42007e-05 -8.75463e-09 -0.000101961 1.77245e-07 -2.80191e-07 0.000281482)
(9.43985e-05 -2.34015e-07 -0.000101999 3.97326e-07 -6.32569e-07 0.000281374)
(9.44177e-05 -6.84449e-07 -0.000101905 9.88875e-07 -1.53015e-06 0.000281483)
(9.40028e-05 -1.63646e-06 -0.000101637 2.32435e-06 -3.79141e-06 0.0002822)
(9.43572e-05 -3.63655e-06 -0.0001012 5.4838e-06 -9.27754e-06 0.000282659)
(9.5184e-05 -7.73334e-06 -0.000101367 1.47302e-05 -2.13138e-05 0.000280384)
(9.03377e-05 -5.66318e-06 -0.000116222 7.81055e-05 -3.3115e-05 0.000241009)
(9.77956e-05 -9.85663e-08 -0.000104491 1.9273e-07 -2.35571e-07 0.000225355)
(9.7822e-05 -1.00912e-07 -0.000104462 3.65434e-08 -1.36757e-07 0.000225349)