/*--------------------------------*- C++ -*----------------------------------*\
| =========                 |                                                 |
| \\      /  F ield         | foam-extend: Open Source CFD                    |
|  \\    /   O peration     | Version:     3.1                                |
|   \\  /    A nd           | Web:         http://www.extend-project.de       |
|    \\/     M anipulation  |                                                 |
\*---------------------------------------------------------------------------*/
FoamFile
{
    version     2.0;
    format      ascii;
    class       volScalarField;
    location    "172800";
    object      DSigmaEq;
}
// * * * * * * * * * * * * * * * * * * * * * * * * * * * * * * * * * * * * * //

dimensions      [1 -1 -2 0 0 0 0];

internalField   nonuniform List<scalar> 
21211
(
15.2632
15.2487
15.2466
15.2163
15.0885
15.0505
14.8927
14.6367
16.0618
15.9861
16.0495
16.0469
15.995
15.8561
15.6518
15.0901
13.7837
14.0683
14.1661
14.1358
14.1255
14.1039
14.0601
13.9614
13.7625
13.5997
15.1754
15.0358
15.0981
15.0863
15.0492
14.9495
14.697
14.0502
12.6423
12.374
15.8007
15.7563
15.7446
15.7228
15.6841
15.5848
15.3842
15.2549
16.8607
15.5627
15.6189
15.6045
15.5678
15.4705
15.2155
14.5686
13.1704
12.5596
16.0612
16.0242
16.0139
15.9932
15.9537
15.8485
15.6372
15.4687
16.866
15.6283
15.6579
15.6425
15.6018
15.4969
15.2197
14.5099
12.9279
11.9894
17.3862
17.3322
17.3189
17.295
17.254
17.1409
16.9084
16.7506
18.4683
15.3476
15.3374
15.3146
15.2684
15.1523
14.8524
14.0927
12.4395
11.4252
18.4981
18.4592
18.4492
18.43
18.3841
18.268
18.038
17.7948
18.9716
15.9512
15.9025
15.8774
15.8284
15.7077
15.3967
14.6178
12.8984
11.3435
21.8612
21.8384
21.8277
21.8041
21.7684
21.654
21.4009
21.3377
23.65
17.3898
17.2967
17.268
17.2177
17.0967
16.7875
16.011
14.3629
13.4754
21.3496
21.3331
21.3179
21.2939
21.244
21.1282
20.8975
20.6438
21.7686
17.6384
17.5274
17.4933
17.4368
17.3025
16.9664
16.1402
14.3894
13.0118
24.1546
24.1554
24.1482
24.1227
24.0633
23.9505
23.6774
23.5607
25.6391
19.2155
19.13
19.1037
19.049
18.9111
18.562
17.7025
15.9217
14.6724
28.2788
28.2824
28.3058
28.2866
28.228
28.1159
27.6329
27.6913
29.6522
20.4483
20.391
20.3729
20.3199
20.1811
19.8134
18.9171
17.3138
16.5678
27.677
27.6894
27.6988
27.6711
27.5948
27.5308
21.0736
28.1687
29.1524
20.8169
20.8181
20.7946
20.7242
20.5438
20.2058
20.089
17.4421
16.8679
33.7371
33.7333
33.7191
33.6848
33.6088
33.3825
26.7089
31.9389
34.8317
22.6291
22.6516
22.628
22.564
22.4154
22.0114
21.0666
19.3373
18.4755
33.0501
33.0317
33.0133
32.9742
32.8831
32.6546
32.2386
32.146
33.9039
22.9479
22.9932
22.969
22.8955
22.7158
22.2811
21.3218
19.643
19.3034
34.5425
34.5051
34.4839
34.4423
34.3507
34.1591
33.8318
33.5968
35.186
24.3283
24.3479
24.319
24.2416
24.0589
23.634
22.6961
21.0638
20.9332
36.6434
36.6047
36.583
36.5407
36.4491
36.2614
35.934
35.6385
36.9485
26.4308
26.4559
26.4281
26.351
26.1709
25.7584
24.8562
23.2367
22.3151
38.7258
38.6957
38.6733
38.6277
38.5298
38.3335
38.0096
37.8306
39.3594
27.6327
27.6424
27.6108
27.5305
27.3453
26.9235
26.0053
24.3833
23.5833
38.3907
38.3598
38.3371
38.2924
38.1984
38.016
37.7355
37.6691
40.0732
29.0497
29.0667
29.0355
28.9555
28.7738
28.3688
27.5137
26.1053
26.2756
39.0766
39.0481
39.0254
38.9802
38.8853
38.7012
38.4201
38.3787
41.0397
29.975
29.9886
29.9569
29.8768
29.6958
29.294
28.4487
27.0495
27.0568
37.614
37.589
37.567
37.5243
37.4358
37.2648
36.9991
36.8982
38.9903
31.6185
31.6345
31.6044
31.5299
31.363
30.9935
30.2141
28.9135
29.1954
21.7339
21.7102
21.7027
21.7299
21.5191
21.594
21.4523
20.8555
19.4532
19.2605
19.1772
19.2388
19.2964
13.8794
19.3343
18.7274
11.8303
10.9573
15.6976
15.2387
18.8356
18.4215
16.2843
14.9017
14.4456
15.7052
14.5863
20.2885
20.2617
22.9961
23.1444
23.1191
20.1474
19.9659
22.3015
20.0496
21.801
21.8076
21.749
21.7342
21.708
21.6792
21.5607
21.194
18.7087
19.0332
19.0371
19.0227
19.001
18.9677
18.8933
18.7248
18.355
16.8
18.0888
18.0937
18.0861
18.0615
18.0301
17.966
17.84
17.5736
16.0533
17.0838
17.0835
17.0763
17.0569
17.0239
16.9607
16.8531
16.6769
15.6149
15.8739
15.875
15.8667
15.8528
15.8166
15.7382
15.5932
15.3266
15.3024
17.613
17.6079
17.5997
17.5841
17.5393
17.463
17.3346
17.1117
16.5383
16.5733
16.5698
16.561
16.541
16.5032
16.4151
16.2513
16.1306
18.2351
19.4683
19.4645
19.455
19.4329
19.3851
19.2886
19.1109
18.8731
19.7214
19.4216
19.4241
19.4144
19.3917
19.342
19.2488
19.0949
18.8876
19.2759
20.523
20.526
20.5159
20.4925
20.4439
20.3529
20.204
19.968
19.8527
22.4116
22.4171
22.4064
22.3813
22.3292
22.2296
22.0572
21.7766
21.7183
23.3012
23.3082
23.2968
23.2696
23.2137
23.1067
22.9198
22.5998
22.1679
22.8816
22.8908
22.8797
22.8523
22.7968
22.6937
22.5227
22.2612
22.0406
22.1994
22.2066
22.1944
22.1648
22.1047
21.9924
21.8115
21.5913
22.0804
21.3349
21.3433
21.3327
21.306
21.2523
21.1548
20.9992
20.7563
20.4805
13.4142
13.4846
13.5036
13.4548
13.223
13.0485
12.4781
10.9457
10.8414
13.1472
13.2296
13.3213
13.4115
13.6389
12.9583
12.3817
12.1227
12.3145
12.7813
12.6913
12.3266
12.2607
12.1468
12.2739
11.7882
10.1141
12.4604
14.9165
14.9731
15.0182
15.0297
14.9396
14.7134
14.2527
13.4457
15.389
13.4863
13.504
13.4785
13.4474
13.3774
13.214
12.7856
11.9575
13.9747
12.4157
12.4265
12.4134
12.3855
12.3114
12.1233
11.6522
10.6876
11.7858
12.1533
12.1593
12.1459
12.1146
12.0381
11.8477
11.3805
10.4561
13.1818
11.3742
11.3783
11.3631
11.3285
11.2475
11.0523
10.5836
9.6995
12.5034
11.5131
11.5081
11.4926
11.4566
11.3705
11.1622
10.6574
9.70534
13.6095
12.4348
12.4384
12.4235
12.386
12.2969
12.0879
11.5986
10.7097
13.5245
12.6151
12.614
12.5971
12.552
12.4459
12.1943
11.6146
10.614
13.8459
13.5003
13.5042
13.485
13.4338
13.3123
13.0264
12.3683
11.2465
13.7765
14.2265
14.2287
14.2088
14.1558
14.0321
13.7502
13.1323
12.1569
14.6749
14.9538
14.957
14.9359
14.882
14.7598
14.4904
13.9245
13.039
14.8654
16.1967
16.1923
16.1697
16.1149
15.993
15.7278
15.1751
14.2882
15.5125
16.7974
16.7885
16.7639
16.706
16.5783
16.302
15.726
14.7568
15.2872
17.5201
17.5072
17.482
17.4241
17.2988
17.0354
16.5109
15.6827
16.0673
16.8221
16.8052
16.7782
16.7172
16.5856
16.3085
15.7591
14.9723
16.2947
17.887
17.8702
17.846
17.7918
17.6766
17.4378
16.9672
16.2421
17.0699
17.0673
17.8179
17.0708
16.0676
16.8358
15.9574
15.3262
15.378
14.8912
14.6961
14.6224
14.8567
15.05
14.7666
14.6782
13.6077
13.9628
14.4218
14.7117
17.8082
14.5826
14.8487
14.1566
13.625
13.0279
12.9973
12.7591
12.8211
12.3639
12.1191
12.504
13.6672
13.1688
13.5488
13.2386
12.8681
13.1596
13.7626
18.0063
18.1761
18.6922
15.908
15.0194
14.8464
14.3443
13.9886
13.5481
13.6536
14.0838
14.3578
15.2078
15.5574
15.4811
15.248
13.2327
13.2112
14.1173
16.8482
14.9722
13.7455
13.8674
13.6488
13.4449
13.1453
13.2276
12.8627
13.2348
12.4539
12.3429
12.9579
14.2748
13.8203
13.7592
12.9578
12.2965
12.6047
20.0757
17.0487
16.2242
16.4389
15.2411
13.8872
13.7232
13.0481
13.0246
12.4538
13.243
14.0267
15.0187
16.0174
15.8609
15.392
14.4873
12.6976
13.4091
16.3988
15.8335
14.4717
12.7897
13.1002
13.5453
13.3337
12.8907
13.3335
12.3755
13.3302
12.669
12.546
13.6485
14.5246
13.5754
13.0658
12.5373
12.1598
19.0578
18.4549
15.1741
13.955
14.8388
14.7488
13.7891
14.477
13.4245
13.115
12.8726
13.9793
14.8122
15.3141
15.2514
16.2723
14.81
14.2786
13.2617
16.0394
15.5981
14.7539
13.0533
12.4187
12.2508
13.8098
13.3194
12.9328
12.9723
13.5983
13.183
15.6097
13.6347
13.5786
13.8889
13.2257
13.0325
12.6928
17.7429
17.1585
17.252
13.65
12.7905
15.5954
14.9597
15.2058
16.5295
14.9431
14.4752
13.8732
14.1645
14.2573
15.0771
14.9122
15.7054
14.9897
15.1104
15.9085
14.5016
13.5618
15.4084
13.4999
11.7354
11.1871
13.9519
14.2311
13.1764
12.5916
13.7207
14.9249
13.5782
13.3923
13.5537
13.7894
13.3892
13.2284
16.8196
16.4327
16.5312
15.7869
14.2032
14.9578
16.9411
15.9379
15.8552
17.3834
16.0359
15.1878
14.3327
13.6986
15.0591
15.1741
15.1475
15.815
16.2134
16.2112
15.6077
14.1526
14.0589
14.4286
13.6025
12.7616
11.8586
13.9063
15.6604
14.6113
14.6513
14.5032
15.2754
15.3057
12.4332
12.7258
13.8874
14.3298
18.3264
16.961
17.3324
17.2886
17.9363
15.0232
14.9899
17.4642
18.0195
16.1693
17.0932
16.2318
14.8405
13.3527
13.6164
15.6684
15.5381
16.5885
17.7091
16.1996
15.5237
15.1172
14.2888
13.2866
12.603
14.919
13.3501
13.8026
15.3393
16.8124
14.9101
14.6086
13.8366
14.6998
14.3841
12.4695
13.8206
14.7372
19.5078
18.5958
17.6032
16.9391
17.8707
17.0986
14.5442
15.4124
17.4719
17.0865
16.5235
17.118
15.0674
12.6861
13.2761
14.4353
15.7492
16.8528
18.0046
16.7209
15.8524
15.3651
14.7267
14.1281
13.3283
13.6327
16.6506
14.9065
14.2965
15.2059
16.0001
14.3197
14.4769
12.9498
13.5527
13.493
13.6629
15.3107
20.2443
18.7932
17.7626
16.1158
16.3251
17.4447
16.3136
14.9409
16.1706
17.5248
16.519
15.9166
15.9502
14.1247
14.3958
15.44
16.2516
16.9072
16.5571
17.2005
16.4225
15.2803
12.3587
15.6682
14.7339
15.0182
15.7801
17.4906
14.697
14.2626
16.4248
15.5191
14.8374
13.7559
13.6933
13.6914
15.0186
16.083
19.7508
19.0643
18.1536
16.9656
15.7266
16.6981
17.5445
17.8256
15.5745
15.3302
16.4731
15.4353
15.526
15.8423
15.6571
16.1174
16.4559
16.0709
16.311
17.8117
16.7809
16.2701
16.0876
13.8079
17.1692
15.8811
16.0237
15.2448
16.7609
12.0145
14.1652
14.5343
15.3169
14.935
14.4381
15.0836
16.0304
16.9569
20.2008
19.4006
18.4137
16.4232
16.8933
17.4934
17.7692
17.5945
17.2734
11.8105
14.9128
17.2277
16.4882
16.6331
16.1968
16.0704
15.9364
15.9725
16.4284
18.4714
17.8623
16.9762
14.6398
18.222
17.2281
16.5769
15.6114
17.1166
13.406
15.7579
13.711
13.939
15.6342
15.5575
15.649
15.9509
16.4488
16.0956
22.4643
21.035
19.4118
18.1746
18.0486
18.3257
16.845
16.0467
17.7835
17.1772
11.7046
16.3183
18.2982
16.5612
15.9644
15.6077
15.6058
16.1318
16.2586
19.6359
19.034
18.4631
18.7381
18.0605
16.7756
14.7686
16.8147
13.2752
15.889
13.7041
15.0758
13.8648
14.3553
16.4376
16.2975
16.054
15.7266
15.2831
23.9558
22.8368
21.6881
20.4488
19.618
17.7404
17.6062
15.819
15.4022
18.0579
17.6117
16.0189
17.2405
17.5028
16.5593
15.7907
15.9504
16.1528
16.333
20.5373
20.2023
19.958
19.3338
17.8784
15.9513
20.9797
14.4335
18.6613
14.797
15.1601
15.3898
15.1207
14.6841
15.8888
16.0065
15.7229
15.0495
15.1209
24.475
23.9214
23.5789
22.7721
20.7209
19.4082
17.0603
16.8358
15.6987
15.9337
18.9838
18.206
17.98
17.8005
17.3051
17.2648
16.1631
16.5362
16.3024
21.3516
21.5168
20.8538
19.6612
17.8845
23.309
15.3272
19.5063
14.5368
17.1129
14.7236
14.273
15.5587
16.8823
15.9252
15.4938
15.2105
15.1788
14.54
25.3373
25.0644
24.5839
23.2551
22.765
20.1453
18.5209
16.9476
17.3561
17.324
17.7743
19.115
19.9522
18.0716
16.5975
17.8832
17.8762
16.3153
15.9242
22.8179
22.2652
21.4317
20.7809
25.7803
17.1329
21.7355
15.5388
18.328
15.5369
15.4309
14.803
15.5081
17.3961
16.6034
15.1761
14.762
14.559
14.869
26.152
25.8993
24.4981
22.46
20.9095
21.8289
19.7086
18.6938
18.4027
18.7465
19.0079
19.2722
20.8508
19.2862
17.3922
16.8898
17.984
17.7463
16.3613
23.555
23.0012
21.685
17.5568
19.8261
24.8338
17.6
20.6008
16.3742
16.0101
16.4182
16.1105
16.0236
16.4802
18.058
15.9965
14.0782
14.1547
14.3053
26.344
25.5442
23.9457
26.673
22.6388
21.1316
22.4971
19.9296
19.7469
20.0684
19.7641
19.9306
20.2771
22.3232
19.6969
17.2297
16.6129
18.136
16.4597
23.826
22.6962
22.202
24.2193
17.3738
19.4633
24.1358
18.2633
19.3099
16.9691
16.978
17.2438
17.617
17.1651
16.8687
16.4149
15.1185
13.851
14.5446
25.4884
24.6083
24.4087
23.5498
23.0343
22.2768
22.8279
21.018
20.692
20.6739
20.4153
20.724
21.9549
20.4566
19.3691
19.5991
17.3122
16.9471
18.794
23.0206
22.6998
22.0098
22.0053
21.6667
16.6821
21.7794
19.3328
18.7959
17.7412
18.3138
18.3598
18.2708
18.0056
16.5473
16.0696
15.9507
15.3637
14.5089
24.8663
21.8958
24.8085
24.3118
22.8101
23.5773
21.8052
23.0595
21.7808
21.5965
21.4601
21.6085
23.3203
20.4608
19.6976
19.8983
19.7326
17.211
15.9521
21.8543
20.6106
21.9357
22.2343
18.3529
21.5714
16.2232
21.4262
19.4215
19.3894
19.3672
19.0726
18.7129
18.2499
17.2782
16.2543
16.5271
16.3836
16.0462
18.331
22.8236
33.8664
28.6166
27.6079
29.5391
28.6761
29.9053
30.0706
28.6485
26.5927
25.9671
24.4596
22.7881
22.1514
21.3976
18.7043
17.3493
17.3175
20.3672
19.8169
25.8132
25.6813
25.4851
26.2398
23.7021
25.9307
25.114
23.1566
22.5679
21.484
20.8939
20.9901
20.6521
19.7333
19.4286
17.3912
16.3166
17.2496
24.209
29.2204
30.6855
29.5363
26.9307
24.6673
27.0424
27.201
26.7915
26.1379
25.3922
23.249
24.9
25.0284
24.0304
21.3861
20.2056
19.5521
21.63
21.8666
23.4048
24.6408
25.8181
23.8408
23.227
22.2626
24.5201
23.6244
22.8446
20.2568
19.3531
19.3874
19.8158
17.4147
18.723
18.022
17.1433
18.1264
20.0703
29.0773
32.1998
33.2789
27.3238
25.8322
26.4352
27.0729
25.7581
24.4977
23.1254
22.919
24.5516
25.7471
22.6328
21.905
21.7265
19.8167
22.787
19.8962
22.1049
23.2509
24.2822
25.95
23.4948
22.3552
22.4665
21.5116
21.2236
20.106
20.3311
21.1504
19.6564
20.7445
21.081
18.2039
17.4419
14.9501
18.7791
30.3678
30.4151
31.4875
33.1754
30.4145
26.073
25.5326
24.833
23.4246
23.9019
22.7455
24.6408
25.3475
23.7432
22.8833
22.6512
20.5914
13.7708
18.3685
21.098
23.0844
25.051
24.1593
24.8091
23.5424
20.6589
21.3986
20.7109
21.1012
20.2021
22.4533
20.1083
21.7498
19.3991
18.3331
18.2364
18.3473
24.4541
30.3576
30.4616
29.7331
29.8982
33.4225
23.6952
22.7455
24.2489
24.6604
23.8995
24.4126
24.6182
25.3379
24.751
24.5324
23.688
19.8229
14.4078
19.7089
23.0587
24.3911
25.0562
23.5005
22.9582
23.6905
22.0759
22.8376
19.4227
20.8976
21.4966
19.7156
20.9122
21.4953
20.3772
19.9354
17.2095
16.7978
23.6877
33.7598
30.371
34.5521
29.1989
28.9611
26.0026
23.8225
23.3376
23.5711
24.8085
23.8823
23.3979
23.6745
24.6658
25.5566
22.8966
19.5593
12.5794
21.4831
23.046
24.5867
23.7073
24.1768
24.0182
24.0962
21.9256
21.6107
20.6657
21.3077
20.6997
18.7844
20.2518
21.5317
20.9692
19.3471
17.377
19.2817
22.3523
29.2633
28.8637
32.0182
29.0044
32.9962
31.534
30.5726
24.8021
25.0448
23.63
23.3216
23.8211
25.5418
26.6355
24.7598
21.8488
19.3418
16.2717
19.8224
24.9789
25.0345
23.5699
24.4309
23.6951
22.4197
21.9758
21.9417
22.997
20.2262
21.0227
19.7261
21.5689
22.1162
21.0391
18.9323
17.7675
17.3814
32.9438
34.901
27.4198
40.4634
33.1398
34.2772
30.1552
38.3327
23.9887
24.5953
22.7852
23.3806
24.3643
26.0566
25.7294
23.5363
20.5707
19.9807
16.3788
23.0179
27.5152
24.3966
23.549
25.5468
26.291
23.9384
21.0334
22.6803
20.5168
19.6224
19.904
20.8541
22.8716
21.7078
18.737
18.8109
17.7263
24.21
34.454
34.1763
34.5619
38.0008
39.3589
28.4304
28.5338
36.4105
24.7255
24.1648
23.1526
23.92
23.0842
25.1893
24.1852
21.7448
20.0873
20.5649
17.5912
22.2636
25.4304
26.8688
24.2767
23.1582
23.5833
24.0685
21.8555
22.7292
20.811
20.1511
20.8836
21.0757
22.2089
19.7057
17.9679
18.31
17.7769
26.2092
41.6821
40.4809
31.1471
34.4256
36.1938
28.2245
37.9952
28.829
24.2906
23.2135
26.059
24.2736
22.9287
24.0028
22.9103
19.8785
20.6354
20.9778
20.4983
24.869
27.9407
28.8028
27.5092
25.1075
25.0801
25.4473
23.5559
25.5008
25.2544
19.6393
21.8743
20.99
20.8432
18.6293
18.3569
18.7292
18.6133
24.0328
39.7554
35.1373
41.6932
36.0794
37.9311
39.6789
37.6287
30.4078
26.2968
23.6008
25.5947
24.3689
22.7126
24.1558
23.5826
21.7188
22.7453
21.7178
20.3852
28.8615
27.5784
28.1217
24.4067
24.5215
29.0663
24.7771
24.5252
26.3866
24.4949
21.1856
20.8885
21.1134
20.6643
18.6905
19.6915
20.0917
19.5411
29.4139
40.1961
40.8371
39.3856
40.0343
36.8341
36.0535
28.3993
35.6972
26.4934
23.6853
25.2189
25.9905
25.12
25.4642
24.3126
24.2845
24.9155
24.0926
21.5433
29.0232
31.7361
31.1123
29.0901
29.3198
26.4676
25.2302
27.2714
25.7479
25.5484
22.7429
20.883
21.6098
21.2295
19.9263
20.7543
21.0725
19.9085
25.9075
41.4325
45.5805
42.5816
33.9709
40.9644
38.4985
34.6789
42.4965
26.0069
25.3368
25.7419
27.437
25.5509
25.3443
25.0411
24.06
25.1297
25.4363
22.0263
26.6332
33.7346
30.9886
28.7717
26.7728
25.6912
30.1171
26.8516
28.4684
27.343
22.2832
21.8578
22.3161
21.826
20.1374
21.0472
21.2785
23.1338
33.2904
46.8813
42.9512
41.6432
47.289
45.2226
34.895
43.2724
33.0262
28.107
26.7512
28.1065
27.2653
26.008
25.6754
25.3962
23.6748
25.0635
25.1788
28.1181
31.5869
35.0981
34.2908
30.9774
29.5667
29.6752
27.6462
27.8597
29.3869
30.0471
21.7602
24.831
22.4492
22.0022
21.5584
21.3307
21.3924
22.0407
33.2396
44.6612
45.9173
42.6598
36.512
38.7482
41.4435
36.7908
29.6668
29.9053
27.259
28.3642
26.6015
25.8875
25.6468
24.679
24.7806
25.2363
25.4712
24.6202
32.6528
33.219
32.2843
31.4831
30.389
29.2928
28.8091
29.8857
31.9296
31.4373
23.4092
24.2492
24.2641
21.9619
22.2595
21.3315
22.0691
22.3167
24.2626
45.4517
46.5724
46.0711
46.6545
37.63
32.2537
34.4246
33.1775
30.6455
28.4317
28.5499
28.2306
27.0645
26.344
25.4608
25.4182
26.0613
26.2187
25.4352
29.5333
36.2716
37.0896
31.595
30.5889
33.4916
29.5496
32.0909
33.7142
29.7015
26.3727
23.9119
25.1048
24.9799
22.5955
22.8065
22.4259
23.8229
31.0279
44.326
40.8414
43.2209
44.1638
39.0885
39.3057
34.9245
44.162
29.2517
29.3025
28.9734
28.5209
28.3844
26.6639
25.9535
27.4404
25.5724
26.0226
33.5455
37.3273
40.2456
37.7119
35.2468
33.2457
31.5095
33.8877
32.1379
31.814
30.1321
27.1558
25.0852
24.6593
26.119
23.2232
23.5632
23.3882
23.8781
47.6171
43.833
44.5319
40.2353
31.7103
37.3513
39.9813
37.0494
31.9032
31.6596
28.9644
30.7345
27.978
27.6758
27.6897
25.773
25.4264
26.1459
25.5391
34.1457
39.6988
36.0825
38.3944
39.2799
34.3975
34.2627
33.8864
30.6793
31.8446
30.5567
25.5354
26.8036
23.782
25.4572
24.4227
23.149
23.9315
23.1682
31.5155
41.727
47.759
47.42
41.5989
37.7842
33.8872
34.8631
34.5752
33.0532
30.1952
29.7278
28.6037
27.1685
27.3995
26.9463
25.0519
25.4518
25.3234
38.8672
42.8444
47.5269
40.5796
39.5978
36.6111
34.0338
34.2275
31.3809
32.2832
27.1616
28.2623
24.985
24.9331
23.873
25.0252
23.0846
22.231
22.1213
18.0203
24.9078
32.5033
32.9202
31.9916
31.4874
29.9112
30.0907
28.9799
27.3946
25.6758
25.2653
23.6298
22.4496
22.0909
23.6202
19.8597
17.6494
19.5533
24.6583
31.242
34.0257
31.5031
31.5537
32.8876
30.5704
27.4628
26.5756
24.9203
23.8742
22.8174
22.1618
19.1751
19.7167
19.9655
19.1413
17.3236
18.3058
25.2862
28.8538
31.5883
31.33
30.9389
31.0919
27.5813
25.2698
24.0453
21.367
21.4402
22.0262
19.2083
19.3749
19.9032
19.524
17.4311
17.6969
17.5032
23.5867
32.1301
35.631
31.4747
31.8163
28.6152
26.4842
22.4774
21.6847
20.4346
19.6605
19.3602
19.1385
18.6003
17.5315
17.2024
15.8447
17.4277
17.3122
26.935
34.997
37.235
30.1676
30.0174
24.7577
23.3361
20.5504
18.249
18.517
17.7218
17.5163
17.3929
15.944
16.4274
15.771
14.7297
16.0507
16.8783
21.6835
36.794
38.085
31.6407
29.3766
26.2086
21.3409
19.3707
15.8824
17.5959
18.1134
17.6924
16.7728
15.624
16.853
15.4088
14.2792
15.6668
15.8268
32.0113
39.9026
39.053
31.8563
28.7246
23.4815
20.3704
16.6627
15.5362
16.628
16.7237
16.7753
15.7975
16.7414
16.4867
14.9918
14.4186
15.7798
15.73
28.8918
40.089
40.5166
30.8988
28.902
23.0628
18.5969
16.5122
15.6063
16.6074
16.9374
16.7569
16.3284
16.166
17.0484
14.7575
14.999
15.6403
16.0543
29.2449
38.835
38.3273
29.6883
26.5471
20.5575
19.912
17.0141
16.8798
17.2711
18.0072
17.7364
18.4544
16.4699
16.7729
15.4239
15.4565
14.8963
15.4897
27.2585
37.0966
39.4421
29.382
26.1021
22.1489
19.2508
18.9809
18.7997
18.7013
19.4448
16.8836
18.613
15.8495
14.7859
15.1689
15.3691
14.735
15.0384
24.1395
35.2436
41.2556
34.9687
27.2758
21.5085
20.221
20.2391
18.4757
19.2093
19.5964
16.3156
15.3263
15.0547
14.7632
14.8023
15.1545
14.7672
14.6604
28.3446
37.5086
37.0433
34.3344
27.0188
22.7908
21.6625
19.6475
17.3739
16.4276
16.621
16.0253
14.3857
14.6471
14.4345
14.6511
14.3846
12.895
14.4593
21.8444
31.7933
32.5439
29.9424
23.8511
20.9558
19.7805
17.998
16.4644
14.9838
14.7589
15.8784
14.9101
13.4714
14.7336
14.6088
13.7078
12.7208
13.2395
26.2863
30.6637
31.5583
31.3694
26.4796
22.5337
18.9973
16.3891
15.5311
15.2264
14.6963
13.3368
15.1491
13.7823
13.0016
13.5682
13.2603
12.8593
13.7351
21.6814
20.5256
30.1771
31.1897
30.0635
21.687
18.6191
18.2262
16.473
14.7544
14.8215
14.5747
13.8888
14.7428
13.7468
12.8396
14.2132
13.6116
12.4641
15.2724
31.5977
36.9321
28.1655
25.701
23.1052
18.8741
17.1782
16.4327
14.9835
13.5587
14.8494
14.4731
12.5879
14.1971
12.651
14.0861
14.7663
13.7295
21.5403
25.3407
29.48
31.2611
26.1208
21.4157
19.8485
18.1204
15.7657
15.2186
14.0727
13.3134
14.6077
13.8862
12.9341
13.982
12.7051
15.0617
14.9921
23.7029
30.4735
31.1551
29.2023
26.7162
21.6743
18.9102
18.4212
15.9354
15.1425
15.1801
13.61
14.6745
14.7472
12.8595
14.445
13.6541
13.4594
14.8902
21.9562
31.3958
30.6063
27.1608
23.1625
21.1614
18.6435
18.0126
16.5934
14.5216
15.1063
14.0829
13.6871
14.7481
13.934
12.327
14.1239
12.5393
13.9621
19.0303
22.9143
27.1333
28.6157
28.9296
27.33
27.0506
28.0906
25.5366
23.1675
22.8245
20.9852
18.966
19.7442
18.6669
16.0509
15.6225
15.7045
15.3215
26.2317
34.1735
41.5959
35.6298
28.5564
29.8786
26.3619
25.7071
22.4331
21.9275
20.9174
19.1639
17.9223
19.4001
19.1764
18.087
16.0361
15.5
14.8066
26.1134
32.0105
35.6894
36.2686
28.1345
26.9484
23.9473
22.6937
20.0884
19.5262
19.9387
17.826
17.1961
17.8704
16.2593
15.9434
15.4863
15.5567
16.9778
28.5836
26.6269
36.5849
38.4534
28.2537
26.3714
23.5496
20.9945
18.7398
17.4542
18.6222
16.4552
16.7115
16.2789
16.5683
14.6716
14.1008
15.1609
14.4179
30.8172
28.6233
39.0338
36.941
26.6729
23.6579
19.4559
18.4559
17.0172
16.5912
15.7193
17.3331
15.1154
13.9489
15.758
13.3698
13.5902
14.3396
14.5306
21.7568
34.9828
41.7718
36.8138
28.0158
23.1969
18.5102
16.8617
16.1432
15.8008
15.5761
15.6178
14.409
13.6286
15.0211
13.9623
13.2355
14.4928
13.7074
30.7516
36.3388
39.7746
37.8565
27.2407
22.3286
18.9915
17.0501
15.3984
15.4952
16.1046
15.9441
15.1072
13.9834
15.8241
13.7285
12.6558
13.3919
12.7616
32.6629
33.2031
42.3492
36.0319
26.4758
22.7509
19.7645
16.7275
16.5133
14.8649
15.8359
15.0563
15.6461
13.8282
14.4423
12.7036
13.0611
13.6471
12.4804
31.9375
32.0686
43.5316
32.973
25.6167
19.9687
19.8273
18.7356
16.726
16.1507
16.6856
16.2236
16.4543
13.9191
13.6969
12.4231
13.4016
12.5579
12.5026
30.3802
31.3375
40.2958
32.8616
27.7236
22.9165
20.1574
19.1626
17.7271
18.4739
16.4976
14.2479
14.2446
13.8339
12.1013
13.02
13.3969
12.9315
12.4239
28.3576
31.2463
36.1687
28.922
27.3121
21.9887
17.9067
18.864
17.2465
16.6337
14.5481
12.4249
11.5338
12.5752
12.6866
11.9469
13.2109
13.3521
12.6054
24.5447
32.5527
31.715
30.8189
24.5326
22.038
19.2902
16.9199
15.7369
12.7975
12.4368
14.0602
12.2203
12.6302
12.6586
10.7787
11.7621
12.7692
12.9466
26.5446
25.7638
26.2739
25.14
22.718
20.1734
16.5346
16.0496
14.7084
12.8427
11.6227
13.3955
13.0035
12.0289
13.1454
12.7343
11.5611
11.9435
12.9715
26.2053
24.7813
25.9733
25.2922
22.6904
20.9982
18.8255
14.4276
13.2187
13.9447
14.1453
10.8069
13.4017
11.4329
11.9008
13.2488
12.7651
11.6127
12.5315
23.3669
20.452
24.2172
24.7002
22.9138
21.8485
19.1491
16.2851
14.3775
12.7528
13.3703
13.849
12.7165
13.4717
12.8339
12.2464
13.3334
12.6639
12.4906
21.6375
21.803
25.0036
24.9763
23.9887
23.4707
20.1038
16.5607
15.7905
13.8192
12.3318
13.3088
12.1736
13.0081
13.9166
11.9016
12.6847
14.037
13.1553
21.7491
26.5371
26.7784
25.695
24.1335
22.7843
20.0675
15.9712
14.9943
15.0209
14.1997
12.5925
13.5935
12.6827
13.3669
13.9151
12.6424
13.8107
14.1947
23.9605
22.5921
28.0054
26.7621
24.2829
22.5448
19.9075
18.0703
15.8975
14.862
14.8619
13.1003
13.7244
13.1965
13.1429
14.2903
12.7595
13.2551
14.3775
24.0367
21.0401
26.7468
29.7591
24.8788
21.9999
19.8828
17.7817
17.686
14.4983
14.8499
14.3409
13.1973
13.8836
13.0728
13.1705
14.0782
12.2028
13.2492
17.3003
28.2613
31.0204
27.0057
26.4134
22.09
18.3123
17.4663
16.032
13.9376
14.7877
13.9632
13.571
14.4888
13.7221
12.0333
13.9581
12.402
13.8632
23.3403
21.8704
25.846
27.8084
23.9381
21.7426
18.7115
17.2042
17
13.9
14.4747
13.8226
12.8011
13.6067
12.7795
12.8527
13.8276
12.0935
13.0892
18.4061
29.2382
29.3816
29.3431
27.6369
21.5477
18.6797
17.7963
15.4695
15.3121
15.3707
13.3707
15.5744
14.5573
12.2666
14.3189
13.452
13.0596
14.5216
21.5731
22.6289
28.1893
26.4317
23.3952
20.9215
18.4783
17.5086
15.5752
13.9771
14.8684
12.1769
13.4224
12.5974
12.5445
13.7415
11.905
12.2452
13.211
18.6841
29.237
31.4942
33.2782
28.1302
22.1909
20.8112
19.3692
16.7794
17.1785
15.9124
14.6216
16.1985
14.9567
14.3005
14.9139
13.145
14.7434
14.3566
21.2461
25.852
28.3423
26.1601
22.9815
21.0547
19.1349
17.3918
14.7883
15.2756
15.2276
13.232
13.8017
12.4602
13.0291
13.4426
11.8548
13.1541
12.569
19.8447
31.1244
33.5396
30.026
26.5013
24.5959
24.9542
19.2475
17.4474
16.1587
15.191
16.5486
16.0187
16.3123
16.6086
14.8855
15.2982
15.2958
14.391
23.2438
25.3716
25.0771
25.805
24.1194
22.9129
20.8321
17.466
16.3597
15.6808
14.306
14.8666
13.268
13.969
14.8972
12.0048
12.8659
12.4094
12.0954
18.0032
30.12
32.8637
33.9562
33.5478
26.7937
21.7901
20.4068
17.3424
15.4592
16.1578
15.0408
16.0909
15.7673
15.5257
15.5106
16.7167
15.9643
14.6746
22.5076
25.4957
27.4764
26.5699
24.0593
22.2604
20.3378
18.5182
16.3645
14.3165
15.6811
14.7741
14.6774
15.3729
13.9591
13.2808
13.8116
12.0032
13.1964
19.6764
31.9976
34.2474
30.4058
30.7256
27.6779
25.697
19.1876
17.5472
16.2866
15.2575
15.7235
15.1732
14.8687
13.7591
15.9717
16.8926
15.9387
16.5155
22.0844
24.5015
26.315
26.3065
26.4785
22.8129
19.9955
17.1626
14.9511
14.7277
12.2975
14.3108
14.534
14.1438
13.6349
14.6288
13.4879
13.3128
13.7179
21.768
25.9646
34.847
32.6719
29.6322
23.6041
21.906
19.4183
16.9676
15.0461
14.9503
15.9214
15.1101
15.4102
15.4636
16.6393
15.2078
15.8924
18.2726
22.7195
24.2801
29.3958
25.0655
24.7984
21.845
19.9868
17.3717
15.7074
13.578
13.4407
14.1433
12.9301
13.6262
14.1185
13.9581
15.1313
15.0426
15.7129
13.4928
30.8095
33.1903
30.8211
30.0891
22.5713
19.8888
17.8523
15.1388
15.5157
15.9726
14.3917
13.9003
15.0075
14.8563
15.0954
15.1318
16.5021
18.1877
22.7894
25.2358
27.51
27.6386
24.053
19.6176
20.1326
18.4668
13.4616
13.0881
14.2065
14.0907
11.7391
12.9855
14.0922
12.7837
14.5552
16.6418
15.9646
16.3734
27.7627
34.7689
28.8426
24.8747
22.7826
19.7366
19.0795
16.9949
16.3775
15.631
13.9634
13.9703
14.7729
15.2192
14.5063
15.5956
16.9145
17.4169
22.375
27.4876
27.1711
25.8735
24.5875
22.2882
19.0739
17.6389
14.7021
14.4404
12.1399
12.027
12.983
13.3026
11.1019
13.2602
13.834
15.7915
17.0548
23.1801
33.3911
31.7125
23.9991
25.974
23.6364
21.6567
19.9733
18.6291
16.5426
16.1357
15.5902
15.5033
14.8842
14.4587
14.7886
15.8051
18.6252
17.2101
26.6701
27.3134
36.7146
28.1009
27.8948
25.8875
19.3091
17.5661
16.4604
14.2671
12.9633
13.8046
14.0754
13.007
11.7241
13.4431
12.6756
14.5325
16.3847
18.3795
30.3443
34.6697
27.6003
25.888
21.0395
19.7561
19.2249
18.4576
16.8159
16.9447
16.7804
16.1853
15.6381
14.0317
15.1547
15.689
17.9041
16.938
26.2138
29.2699
35.3037
29.4274
30.7443
24.0243
19.7801
18.5963
16.8751
15.8518
14.9816
16.2035
13.3796
13.4374
12.4948
13.7206
12.9078
13.224
15.5173
17.6802
32.1255
33.6132
29.8199
24.1329
20.6622
19.7643
16.5097
17.4834
16.2715
17.7401
16.1459
17.1786
16.0595
14.1758
15.9118
16.086
17.26
15.9443
19.2073
28.1751
33.1174
28.9078
27.5615
22.9546
19.875
16.4701
16.486
15.7775
15.669
15.0712
15.1738
13.9935
13.0316
13.9675
13.4231
12.6024
14.9595
20.2864
30.5049
28.1183
23.289
21.6632
19.3965
19.0539
17.3313
16.6985
15.8086
16.082
15.5949
17.0713
17.0709
14.7683
15.0991
16.134
16.1183
15.4658
24.1818
24.1218
29.7711
28.8453
21.363
19.6463
18.1473
17.3655
17.4665
15.9545
15.2678
15.1075
14.9877
16.7262
13.2166
14.6985
14.4323
12.8869
14.4078
14.6606
29.0698
28.8355
26.3868
21.963
20.9335
18.9063
18.3208
16.9937
16.8403
16.6091
16.0057
17.0568
16.7145
14.7343
15.4669
16.0304
15.8414
15.661
23.2831
26.8528
25.2343
25.4102
22.5407
19.8275
18.1087
18.027
17.5906
16.2754
16.3486
14.2742
15.1048
16.0754
13.5796
14.2187
13.6964
13.8896
13.9371
15.3902
28.7939
28.5091
26.3886
23.4575
19.8597
20.3019
18.7451
18.1334
18.2305
18.0807
16.56
17.0091
17.04
15.3644
15.6852
16.6024
16.1498
15.0281
22.7365
25.8874
25.8861
25.3661
21.4947
19.0852
17.6343
17.7769
16.8541
16.7299
17.4386
14.6656
14.9165
15.4347
15.84
14.7276
14.522
13.004
13.8625
20.1116
27.3909
25.595
24.2108
25.4098
23.0232
21.1839
20.0451
18.7303
19.6894
18.6214
18.1239
17.9532
17.4287
17.189
16.4611
17.2334
17.3004
15.8506
17.7547
25.0421
26.6866
24.2075
24.8597
22.0005
19.7556
18.5947
17.6819
17.1616
17.8198
16.0439
15.6513
15.5749
16.0679
15.9421
14.9018
14.2118
14.674
22.2396
27.9662
27.8516
28.1781
26.8741
25.8156
23.1205
23.1944
21.9263
21.2912
20.114
18.9357
20.1928
18.8485
17.8826
17.974
17.1368
18.2124
15.9191
23.8239
22.3982
26.0469
26.4203
24.0746
24.0299
22.6492
20.9433
19.2116
19.4566
18.2827
16.9674
16.6752
15.2934
16.3137
16.8263
16.1935
15.4361
14.8516
21.4205
29.8038
31.0371
29.764
29.1297
28.3203
26.5639
24.5583
23.6952
22.8333
21.7105
20.6105
20.8706
21.8453
18.8857
19.2761
18.6879
19.0332
18.053
22.7037
27.1626
26.3073
28.0746
25.1909
26.1281
24.761
21.6015
21.3777
20.436
19.477
19.775
18.9227
17.1276
16.9954
17.8714
16.2442
14.2122
14.0227
23.2807
31.5637
33.1069
30.1059
30.543
28.4147
27.3618
26.0631
24.6033
24.0182
24.3139
23.455
23.1532
22.4156
20.8997
19.6291
18.8087
19.4251
18.0973
22.7629
25.901
27.365
26.1406
26.7521
26.0692
26.2603
24.9377
22.117
23.0006
22.3241
18.713
18.7077
18.2876
16.5554
17.4829
15.9562
14.4003
14.4497
19.823
19.8305
19.8192
19.7912
19.7349
19.6327
19.4758
19.2928
19.4604
17.4572
17.439
17.4147
17.3609
17.2474
17.0135
16.5516
15.8133
16.4519
19.3715
19.3779
19.3659
19.3367
19.277
19.1664
18.9997
18.8911
30.2094
17.644
17.6263
17.6014
17.546
17.427
17.1756
16.6627
15.8264
20.4059
17.667
17.6747
17.6631
17.6335
17.573
17.4629
17.3025
17.1953
25.7029
18.9905
18.9758
18.9518
18.897
18.7789
18.5306
18.0315
17.2193
20.2242
21.0048
21.0078
20.9961
20.9678
20.9095
20.8015
20.6523
20.6986
31.3159
20.8849
20.8758
20.852
20.7961
20.6737
20.4122
19.8772
19.0035
22.818
21.1864
21.1891
21.1772
21.1482
21.0875
20.9728
20.805
20.7966
31.2375
21.3434
21.3414
21.3182
21.2612
21.1341
20.858
20.2853
19.3446
22.8489
19.8202
19.8223
19.8104
19.7809
19.7179
19.5963
19.4056
19.2933
29.1547
20.9015
20.9046
20.8824
20.8258
20.6977
20.4157
19.8228
18.8218
22.5111
19.15
19.1521
19.1403
19.111
19.0476
18.9234
18.7304
18.6604
30.4525
19.4336
19.4475
19.4268
19.3697
19.2379
18.9432
18.318
17.2911