/*--------------------------------*- C++ -*----------------------------------*\
| =========                 |                                                 |
| \\      /  F ield         | foam-extend: Open Source CFD                    |
|  \\    /   O peration     | Version:     3.1                                |
|   \\  /    A nd           | Web:         http://www.extend-project.de       |
|    \\/     M anipulation  |                                                 |
\*---------------------------------------------------------------------------*/
FoamFile
{
    version     2.0;
    format      ascii;
    class       volSymmTensorField;
    location    "172800";
    object      DSigma;
}
// * * * * * * * * * * * * * * * * * * * * * * * * * * * * * * * * * * * * * //

dimensions      [1 -1 -2 0 0 0 0];

internalField   nonuniform List<symmTensor> 
21211
(
(54.0292 -0.00252842 0.258654 37.6528 -0.0226221 40.2175)
(54.0821 -0.00307121 0.258762 37.7346 -0.012919 40.2611)
(54.1144 -0.00178568 0.257758 37.7726 -0.0202417 40.2897)
(54.1529 0.00596462 0.247231 37.8421 -0.0462835 40.3571)
(54.1461 -0.00436054 0.2403 37.9812 -0.133112 40.4548)
(54.5945 -0.0572221 0.226272 38.5097 -0.366546 40.9031)
(55.4817 -0.100882 0.192242 39.719 -0.914029 41.8733)
(57.4476 -0.307992 0.148084 42.8301 -2.26543 43.9556)
(63.3033 -1.43545 0.123821 54.0202 -4.46182 47.3747)
(63.6106 -0.00117072 -5.7224 50.0068 0.00284028 61.1122)
(63.4971 -0.00191369 -5.7235 49.8159 0.00612495 61.0073)
(63.5286 0.00402881 -5.72394 49.8485 0.00839033 61.0308)
(63.583 0.02166 -5.7148 49.9549 0.0134445 61.0781)
(63.7164 0.0208014 -5.69479 50.2453 0.0521381 61.2248)
(64.2409 0.0174471 -5.70488 51.0384 0.155563 61.7065)
(65.6136 0.073142 -5.71046 53.1517 0.397322 62.9769)
(69.2121 0.174248 -5.68662 58.7491 1.23861 66.4663)
(78.7756 0.432908 -5.61774 72.1637 4.71981 77.2188)
(53.6504 0.000794963 1.47116 38.2019 -0.0187227 42.0287)
(53.7272 -0.000176348 1.47021 38.3267 -0.0117694 42.0958)
(53.7543 -0.000266782 1.4678 38.3676 -0.0225697 42.1236)
(53.8088 -0.00252695 1.46174 38.4469 -0.0558309 42.1896)
(53.9363 -0.00954021 1.46117 38.6348 -0.145825 42.3338)
(54.3007 -0.0210271 1.44798 39.1411 -0.379999 42.7416)
(55.2159 -0.0574569 1.41404 40.4282 -0.976376 43.7565)
(57.4726 -0.172253 1.37152 43.8139 -2.46635 46.0553)
(64.2603 -0.953496 1.34895 55.8307 -5.35182 50.9412)
(63.5236 -9.38103e-05 -4.55382 49.0147 -0.00594107 58.7151)
(63.4064 0.00108605 -4.55426 48.8233 0.00406261 58.6112)
(63.4322 0.00420962 -4.5537 48.8633 0.00898089 58.6371)
(63.5085 0.00807651 -4.55554 48.9875 0.0219017 58.7123)
(63.6985 0.00619773 -4.55673 49.3015 0.0608027 58.8935)
(64.2249 0.015395 -4.55545 50.1392 0.157108 59.388)
(65.6458 0.045073 -4.55243 52.3903 0.418152 60.7281)
(69.5295 0.119006 -4.57052 58.4491 1.26126 64.5032)
(80.0697 0.297773 -4.73043 73.5027 4.17643 75.7635)
(55.3441 -0.000846772 2.9435 38.9809 -0.0211462 42.3821)
(55.467 0.000204691 2.94236 39.1795 -0.0130485 42.4936)
(55.4991 0.000614213 2.94007 39.2281 -0.0246886 42.5265)
(55.5641 -8.88524e-05 2.93293 39.3164 -0.0601245 42.6029)
(55.7131 -0.0020393 2.9333 39.5232 -0.153653 42.768)
(56.0919 0.000487868 2.91856 40.0483 -0.395631 43.19)
(57.0406 -0.00384693 2.88131 41.3759 -1.01401 44.244)
(59.3856 -0.0579623 2.85504 44.8247 -2.5489 46.6515)
(66.1593 -0.705269 3.00787 56.5242 -5.64227 51.8278)
(66.2059 0.00175741 -4.21936 50.4038 -0.0131481 59.5328)
(66.1027 0.000860517 -4.22034 50.2331 0.00344126 59.4452)
(66.1338 0.00283836 -4.21945 50.281 0.0104947 59.4748)
(66.218 0.0058064 -4.22172 50.413 0.0239994 59.5561)
(66.4249 0.00227683 -4.22324 50.7423 0.0647279 59.7494)
(66.974 0.00708506 -4.21993 51.609 0.166329 60.2623)
(68.4394 0.014531 -4.20952 53.9113 0.437424 61.6342)
(72.3992 0.0113802 -4.20676 60.0209 1.27331 65.4435)
(82.6428 -0.0611369 -4.21718 74.8511 4.2005 76.315)
(57.1055 -0.00144456 4.16632 41.0143 -0.00894955 45.6405)
(57.2116 0.000632541 4.16665 41.1807 -0.0119824 45.7392)
(57.2441 0.00204079 4.16428 41.226 -0.0255189 45.7733)
(57.3108 0.0033859 4.1582 41.3155 -0.0623555 45.8475)
(57.4669 0.00823877 4.15736 41.5302 -0.158957 46.0191)
(57.8692 0.026548 4.13744 42.0807 -0.407726 46.4591)
(58.8859 0.0596699 4.08773 43.482 -1.04435 47.5573)
(61.4221 0.122517 4.0388 47.1854 -2.64103 50.1372)
(68.9474 -0.288053 4.2233 60.1129 -5.83344 56.1588)
(68.6206 0.00442747 -3.75633 52.3099 -0.0200375 62.0094)
(68.5814 0.00104068 -3.75806 52.2377 0.00152015 61.9788)
(68.6169 0.00216664 -3.75764 52.291 0.0106324 62.012)
(68.7049 0.00332028 -3.75966 52.4293 0.0260462 62.0961)
(68.9274 -0.00152883 -3.75945 52.7765 0.0684129 62.3016)
(69.5119 -0.00147576 -3.75239 53.6899 0.175904 62.8467)
(71.0669 -0.00617426 -3.73456 56.121 0.465747 64.3078)
(75.2532 -0.0374237 -3.71914 62.6089 1.33988 68.3516)
(86.1797 -0.220494 -3.82746 78.6658 4.16822 80.1452)
(57.7422 0.00109413 6.02259 41.9303 -0.00879896 47.3965)
(57.9011 0.00246492 6.02141 42.1777 -0.0134723 47.5469)
(57.9385 0.00448726 6.01787 42.2304 -0.0275417 47.5866)
(58.0079 0.00974005 6.01011 42.3248 -0.0660175 47.6626)
(58.1742 0.0233769 6.00738 42.5542 -0.169238 47.8427)
(58.5963 0.0626356 5.98142 43.1341 -0.433503 48.2971)
(59.6452 0.156629 5.9181 44.5983 -1.10715 49.4266)
(62.2273 0.342093 5.86897 48.4293 -2.78463 52.0347)
(70.0215 0.392573 6.08836 61.5976 -6.38936 58.4802)
(69.3428 0.00912065 -1.95119 52.0566 -0.0244606 60.8262)
(69.3819 0.00180818 -1.95201 52.1081 0.00129243 60.8732)
(69.425 0.00143897 -1.95151 52.1778 0.0112341 60.9153)
(69.5182 0.000173015 -1.95501 52.3271 0.0281077 61.0068)
(69.7517 -0.0052097 -1.95534 52.6986 0.0724557 61.2275)
(70.3645 -0.0125321 -1.946 53.6678 0.185679 61.8043)
(71.9902 -0.042183 -1.91905 56.232 0.487225 63.3389)
(76.3699 -0.170722 -1.89011 63.0148 1.3716 67.5656)
(87.7631 -0.746732 -1.98538 79.567 4.07737 79.5687)
(61.9634 -0.00508137 7.58334 46.9913 -0.00360823 55.7162)
(62.0784 0.00176985 7.58345 47.1673 -0.0135847 55.8304)
(62.1151 0.00532805 7.58095 47.2152 -0.0283634 55.8704)
(62.1898 0.00998571 7.57679 47.3127 -0.0696867 55.9489)
(62.353 0.0291139 7.57099 47.5418 -0.174927 56.1275)
(62.8012 0.0824842 7.54378 48.1449 -0.442489 56.6058)
(63.953 0.186535 7.4803 49.6915 -1.13752 57.8098)
(66.7188 0.454338 7.39406 53.6769 -2.84483 60.6136)
(74.9254 0.695882 7.58636 67.0962 -6.57222 67.8081)
(71.9187 0.00871865 -0.865086 53.5906 -0.0234343 62.2514)
(72.0339 0.000727066 -0.8643 53.7632 0.000568011 62.3663)
(72.0834 -0.000983125 -0.863357 53.8422 0.0114393 62.4126)
(72.1805 -0.00383551 -0.861914 53.9975 0.0286992 62.5033)
(72.4251 -0.00921975 -0.859321 54.3866 0.0735512 62.7296)
(73.0662 -0.0219804 -0.848527 55.4034 0.189466 63.3363)
(74.7715 -0.0612593 -0.824478 58.0896 0.491499 64.9506)
(79.355 -0.20501 -0.797693 65.1971 1.35394 69.3606)
(91.4448 -0.739758 -0.93236 82.8725 3.7805 82.0171)
(54.9715 -0.001869 9.3558 38.8745 -0.000109716 42.3423)
(55.0692 0.00398408 9.35172 39.0112 -0.0152653 42.4402)
(55.1093 0.00817511 9.34756 39.0621 -0.0318283 42.4837)
(55.1915 0.0195322 9.33926 39.1713 -0.0764456 42.5714)
(55.3915 0.048334 9.33327 39.4381 -0.191684 42.7746)
(55.8812 0.120882 9.30045 40.1064 -0.488844 43.3025)
(57.1031 0.302153 9.19662 41.7883 -1.24068 44.6018)
(60.0649 0.684461 9.11564 46.145 -3.09464 47.5774)
(68.9076 0.740972 9.54017 61.2548 -6.9383 55.2686)
(74.4601 0.0063544 -1.04387 54.6276 -0.00948987 62.5087)
(74.6679 -0.000135503 -1.03913 54.952 0.00379079 62.7131)
(74.7251 -0.00170288 -1.03675 55.0452 0.0138384 62.7672)
(74.8292 -0.00487505 -1.03296 55.2129 0.0345071 62.866)
(75.0934 -0.0143386 -1.02547 55.6316 0.0867151 63.1156)
(75.7693 -0.0363103 -1.01222 56.7098 0.218543 63.7592)
(77.5454 -0.102552 -0.967043 59.5443 0.565812 65.4589)
(82.3477 -0.34597 -0.896022 67.0434 1.56666 70.1683)
(95.0142 -1.10097 -1.00751 85.3298 4.52972 83.6138)
(65.4901 -0.00336961 9.76254 51.5936 -0.00326722 63.547)
(65.5376 0.00403187 9.75999 51.6654 -0.013721 63.6014)
(65.5641 0.0104493 9.75386 51.7062 -0.0300469 63.6358)
(65.6442 0.0235259 9.74734 51.813 -0.0757365 63.719)
(65.8511 0.0554421 9.73631 52.083 -0.193452 63.9295)
(66.3396 0.142765 9.71212 52.7417 -0.485163 64.4375)
(67.6162 0.343129 9.65059 54.4299 -1.21672 65.7243)
(70.5698 0.817032 9.60983 58.7334 -2.97072 68.5969)
(79.0197 1.35564 10.2322 73.3856 -6.59227 75.913)
(78.4024 -0.000173389 1.06344 58.1686 -0.000681517 67.4712)
(78.6305 -0.00235181 1.06776 58.5308 0.00455973 67.692)
(78.6854 -0.00390766 1.06829 58.6266 0.0132368 67.7467)
(78.7934 -0.00794007 1.07018 58.8032 0.0338333 67.8519)
(79.0714 -0.02068 1.07607 59.2456 0.0842196 68.1164)
(79.7866 -0.0528303 1.09017 60.3793 0.213207 68.7919)
(81.6564 -0.143162 1.12242 63.3229 0.553928 70.5779)
(86.5826 -0.454796 1.15573 70.9171 1.53617 75.3892)
(99.1392 -1.45068 0.847803 89.1143 4.3561 88.7848)
(59.8558 -0.00257318 11.8337 45.1035 8.25835e-05 52.8188)
(59.8537 0.00244759 11.8289 45.0845 -0.0139682 52.8199)
(59.8727 0.00747135 11.83 45.1237 -0.0342029 52.8617)
(59.9698 0.0281255 11.821 45.248 -0.082412 52.9612)
(60.2002 0.0717181 11.8006 45.5473 -0.206911 53.1959)
(60.758 0.17722 11.7685 46.2816 -0.517976 53.7656)
(62.0874 0.438977 11.6604 48.0797 -1.28931 55.1311)
(65.2019 0.997515 11.6139 52.709 -3.15192 58.1711)
(74.3289 1.42453 12.2945 68.843 -6.96776 66.1462)
(83.3883 -0.0126537 0.496504 61.3502 0.0130826 70.3109)
(83.5669 -0.00754502 0.502744 61.636 0.00768228 70.4864)
(83.6228 -0.00787588 0.498839 61.7249 0.0149786 70.537)
(83.7385 -0.0104489 0.500452 61.9097 0.0386089 70.6477)
(84.0279 -0.0254333 0.510809 62.3748 0.0947554 70.9262)
(84.7693 -0.0673259 0.533699 63.5685 0.235975 71.6378)
(86.6974 -0.182571 0.584489 66.6634 0.618133 73.5043)
(91.8763 -0.581331 0.657535 74.7095 1.70588 78.6634)
(105.222 -1.76425 0.375526 93.9373 4.67651 92.917)
(63.3821 0.00402372 14.6168 50.4935 -0.0119004 62.7815)
(63.3672 0.00502804 14.6161 50.4677 -0.0160992 62.7658)
(63.3969 0.0115018 14.6343 50.5168 -0.0380878 62.8139)
(63.5053 0.0374197 14.629 50.6485 -0.0866141 62.9175)
(63.744 0.087665 14.6089 50.9526 -0.214357 63.1521)
(64.3391 0.197766 14.5719 51.7171 -0.548147 63.7705)
(65.5891 0.490159 14.37 53.6422 -1.37367 65.1524)
(69.1387 1.30007 14.4724 58.6003 -3.13879 68.401)
(78.3653 1.47556 15.5136 75.9201 -6.96933 76.4289)
(86.723 -0.0157634 2.6717 63.8613 0.0353002 73.1203)
(86.8498 -0.00717134 2.67605 64.0639 0.013822 73.2409)
(86.9158 -0.00830442 2.67553 64.1543 0.0178448 73.2956)
(87.0459 -0.0121404 2.68044 64.3557 0.0425177 73.42)
(87.3533 -0.0329775 2.69211 64.8491 0.0987737 73.7194)
(88.115 -0.0967794 2.70905 66.1052 0.231654 74.4563)
(90.1037 -0.255403 2.74423 69.3655 0.643634 76.3777)
(95.5316 -0.815659 2.80806 77.5853 1.85415 81.8415)
(108.854 -2.59153 2.40577 96.2352 5.10571 96.2707)
(62.2158 0.00484884 14.0753 51.2667 -0.0196076 65.7837)
(62.164 0.0106634 14.071 51.1718 -0.0183096 65.7288)
(62.1873 0.0223815 14.0826 51.2189 -0.0397725 65.7601)
(62.2997 0.0532241 14.0756 51.3649 -0.0973863 65.8663)
(62.5921 0.123643 14.0542 51.7467 -0.242501 66.1403)
(63.2501 0.0807365 14.1433 52.9562 -0.571495 66.8994)
(90.3553 0.401908 6.92978 70.4788 -0.73776 79.1481)
(67.0484 1.49169 14.8615 59.924 -3.35679 70.7205)
(77.9488 1.83336 15.2697 78.9102 -6.7575 80.043)
(87.9011 -0.0252243 4.41587 65.5654 0.0294929 75.9117)
(87.8895 -0.00800628 4.4188 65.5548 0.0138639 75.896)
(87.9454 -0.007775 4.42261 65.6437 0.0204564 75.9516)
(88.0943 -0.0179092 4.42919 65.888 0.0491664 76.1019)
(88.4897 -0.0618403 4.44201 66.5269 0.123673 76.4988)
(89.6915 -0.256378 4.42485 68.1745 0.357636 77.6203)
(94.2019 -0.368212 3.94565 72.547 0.583197 81.4412)
(98.4618 -0.808205 4.32056 81.1215 1.66803 86.2694)
(112.147 -2.73752 3.89706 100.519 5.4054 101.098)
(64.222 0.00982339 16.5591 56.4018 -0.0128784 76.7347)
(64.2197 0.0120692 16.5569 56.3941 -0.0168205 76.7266)
(64.2707 0.026561 16.5543 56.4583 -0.0407152 76.7677)
(64.3943 0.0637386 16.5445 56.6091 -0.0994122 76.8726)
(64.6877 0.153513 16.5204 56.9536 -0.236678 77.1204)
(65.3381 0.503891 16.3958 57.4718 -0.51076 77.5284)
(58.2098 0.924655 12.4166 53.7961 -1.31948 71.1175)
(71.8112 1.43536 15.8831 65.838 -3.47011 82.7604)
(80.167 1.94186 17.899 84.8863 -7.04533 91.198)
(92.5901 -0.0109559 6.23835 69.6322 0.0155193 81.264)
(92.5353 -0.00600138 6.23629 69.5456 0.0125814 81.2068)
(92.5884 -0.010276 6.23834 69.6319 0.0217663 81.2633)
(92.7372 -0.0239914 6.24584 69.8728 0.0496215 81.4169)
(93.096 -0.0477483 6.26617 70.4508 0.115777 81.7844)
(93.9117 -0.0793624 6.33032 71.8809 0.25482 82.664)
(95.74 -0.396548 6.61829 75.4178 0.679597 84.6877)
(102.158 -1.39963 6.45481 84.8319 2.036 91.1539)
(117.193 -3.93225 5.40963 105.394 5.25464 106.832)
(65.4841 0.00958096 13.2018 60.8131 -0.0190302 86.6662)
(65.5585 0.0154152 13.207 60.926 -0.0177304 86.731)
(65.6176 0.0346207 13.2064 61.0063 -0.0424249 86.7788)
(65.7533 0.0838243 13.1996 61.1725 -0.101034 86.8898)
(66.0759 0.202471 13.1803 61.5614 -0.23767 87.1544)
(66.8211 0.497376 13.1202 62.4592 -0.551136 87.7482)
(68.0198 1.13951 12.9916 64.3581 -1.31328 88.8573)
(71.3285 2.39316 13.2491 69.7377 -3.13464 91.9385)
(81.209 2.94825 14.9539 90.5264 -6.56983 101.928)
(87.5791 -0.0102428 8.66402 68.4088 0.00700071 83.0719)
(87.4775 -0.00775777 8.65993 68.2392 0.0117287 82.969)
(87.536 -0.0131452 8.66053 68.3325 0.0224903 83.0307)
(87.7022 -0.0299001 8.66567 68.6089 0.0511063 83.2051)
(88.1039 -0.0704762 8.67827 69.2825 0.118391 83.6259)
(89.0818 -0.182352 8.708 70.933 0.273383 84.655)
(91.5702 -0.542171 8.7706 74.9987 0.669248 87.2417)
(98.0723 -1.67824 8.75605 84.8235 1.80134 93.8992)
(114.439 -4.72497 7.83486 106.196 4.84589 110.585)
(65.2006 0.0192477 11.0268 63.1242 -0.0147695 92.8883)
(65.3399 0.0194055 11.0342 63.3531 -0.0177543 93.0236)
(65.4087 0.0447019 11.0348 63.4493 -0.0427393 93.0812)
(65.5569 0.105932 11.0303 63.6322 -0.100855 93.2027)
(65.9028 0.249465 11.0181 64.055 -0.235676 93.4897)
(66.6847 0.581032 10.992 65.0231 -0.5477 94.145)
(68.331 1.32229 10.9791 67.2171 -1.26743 95.5585)
(71.457 2.85189 11.2603 72.676 -2.90331 98.4778)
(81.0878 3.96367 13.0647 94.5298 -5.98718 108.685)
(87.0005 -0.00157435 9.84758 69.9103 0.00211366 87.5044)
(86.96 -0.00869466 9.84181 69.8315 0.0103132 87.4621)
(87.0317 -0.018165 9.84183 69.9461 0.0217501 87.538)
(87.2168 -0.0416309 9.84653 70.2536 0.0491299 87.7332)
(87.6594 -0.0986094 9.85872 70.9886 0.112212 88.1978)
(88.7303 -0.243934 9.88643 72.7532 0.259736 89.3155)
(91.3895 -0.659975 9.93213 77.022 0.639832 92.0682)
(98.1279 -1.93322 9.88186 87.164 1.75597 98.9793)
(115.086 -5.28473 8.83025 108.803 5.00886 115.897)
(69.4307 0.0183667 7.40962 69.0928 -0.0113592 103.583)
(69.5611 0.0216087 7.41464 69.3235 -0.0169597 103.719)
(69.6329 0.0531278 7.41665 69.4243 -0.0408977 103.781)
(69.7895 0.124888 7.41558 69.6176 -0.0952771 103.911)
(70.1489 0.289117 7.41149 70.0574 -0.219127 104.211)
(70.9426 0.661511 7.40502 71.044 -0.500782 104.88)
(72.562 1.48487 7.42958 73.2335 -1.13822 106.287)
(75.5239 3.16609 7.73725 78.5831 -2.60239 109.195)
(83.9287 4.73321 9.40198 98.717 -5.92127 118.956)
(86.5197 0.000472867 10.76 72.0036 -0.000113627 93.1618)
(86.4661 -0.00972356 10.7555 71.9016 0.00894142 93.1042)
(86.5422 -0.0221728 10.7555 72.0216 0.019919 93.1837)
(86.7404 -0.0506541 10.7594 72.3508 0.044787 93.3936)
(87.2095 -0.117892 10.7696 73.1298 0.101217 93.8886)
(88.3295 -0.28418 10.7924 74.973 0.231841 95.0626)
(91.0667 -0.742348 10.8245 79.3606 0.561639 97.9002)
(97.8971 -2.09656 10.7385 89.6227 1.49258 104.84)
(114.789 -5.5343 9.73177 111.464 4.08315 121.105)
(65.7389 0.0191972 5.34659 67.9805 -0.0121855 104.412)
(65.8542 0.0272554 5.35404 68.1686 -0.0164676 104.526)
(65.9308 0.0637477 5.35693 68.2739 -0.0392862 104.591)
(66.0995 0.147507 5.35859 68.4821 -0.0903749 104.729)
(66.4827 0.337542 5.36035 68.9509 -0.205225 105.044)
(67.3162 0.764083 5.36601 69.9911 -0.463742 105.739)
(68.9713 1.69966 5.41184 72.2788 -1.04557 107.186)
(71.8326 3.59141 5.73232 77.8897 -2.39479 110.205)
(81.2435 4.57099 7.17446 100.724 -5.69871 121.806)
(85.8927 -0.00493402 10.7566 73.1242 0.00216515 96.6602)
(85.8715 -0.0129686 10.7527 73.0773 0.00886587 96.6345)
(85.9566 -0.0272749 10.7521 73.2148 0.0183977 96.7253)
(86.1677 -0.0612953 10.7547 73.5682 0.0405 96.9519)
(86.6618 -0.140819 10.762 74.3947 0.089842 97.4798)
(87.8336 -0.336026 10.7779 76.3357 0.201843 98.7211)
(90.6847 -0.873065 10.7915 80.9269 0.480426 101.697)
(97.7885 -2.46218 10.6515 91.5795 1.26982 108.905)
(115.622 -6.50366 9.54089 113.961 3.47968 125.645)
(68.7641 0.0270379 -0.0600161 70.6481 -0.00770061 108.062)
(68.8711 0.032309 -0.0565439 70.8357 -0.013575 108.175)
(68.9489 0.0732158 -0.0523451 70.9462 -0.0317782 108.245)
(69.1197 0.167015 -0.0469547 71.161 -0.0720486 108.39)
(69.5011 0.376639 -0.0368747 71.6355 -0.161227 108.715)
(70.3047 0.838504 -0.0133192 72.6643 -0.359026 109.413)
(71.7918 1.82975 0.0637053 74.8724 -0.801485 110.814)
(73.9682 3.7847 0.380273 80.327 -1.86936 113.682)
(81.2733 4.77409 1.64829 103.815 -5.0333 125.289)
(82.5646 -0.00937218 9.34635 73.4847 0.00275537 100.828)
(82.5222 -0.0159589 9.34308 73.4037 0.00682355 100.78)
(82.6115 -0.0312613 9.34208 73.5464 0.0133988 100.874)
(82.8337 -0.0688637 9.34295 73.9174 0.0288186 101.111)
(83.3481 -0.156236 9.34651 74.7759 0.0625876 101.66)
(84.5539 -0.371628 9.35452 76.7631 0.137369 102.936)
(87.4529 -0.983367 9.35079 81.3651 0.322649 105.942)
(94.5619 -2.89667 9.17488 91.6632 0.873037 112.992)
(111.845 -8.25742 8.139 111.986 2.48483 128.304)
(70.0209 0.0296556 -4.68708 71.5237 -0.00684409 108.974)
(70.1254 0.0365089 -4.68155 71.7032 -0.00951761 109.087)
(70.2034 0.081039 -4.67655 71.8162 -0.0221919 109.16)
(70.3754 0.183057 -4.66815 72.0357 -0.0495842 109.309)
(70.7574 0.409641 -4.65092 72.5165 -0.108875 109.641)
(71.5538 0.905728 -4.61175 73.5479 -0.2381 110.345)
(72.9924 1.96619 -4.51117 75.7242 -0.527444 111.735)
(74.9239 4.0912 -4.22304 80.913 -1.26695 114.49)
(80.2076 6.01404 -3.29876 102.178 -3.67136 124.966)
(80.802 -0.0133782 7.00084 74.16 0.00290547 104.284)
(80.7635 -0.0184985 6.99881 74.0861 0.00423189 104.238)
(80.8566 -0.0343427 6.99733 74.2348 0.00732182 104.334)
(81.0861 -0.0744346 6.99637 74.6176 0.0153654 104.58)
(81.6136 -0.166728 6.99557 75.4986 0.0333657 105.144)
(82.8459 -0.390887 6.99453 77.5312 0.0746751 106.451)
(85.8103 -1.0157 6.98021 82.2343 0.187064 109.525)
(93.1322 -2.92752 6.85002 92.8056 0.581724 116.72)
(111.238 -8.17082 6.34694 113.958 1.90764 132.459)
(75.369 0.0343743 -9.3675 73.4001 0.002278 108.276)
(75.4513 0.0395445 -9.36747 73.5452 -0.0033363 108.365)
(75.5275 0.0842682 -9.36241 73.6568 -0.00911647 108.44)
(75.6948 0.187987 -9.35281 73.8739 -0.0202783 108.593)
(76.062 0.417213 -9.33285 74.3442 -0.0436839 108.928)
(76.8148 0.91541 -9.28975 75.3397 -0.0938911 109.627)
(78.1255 1.97204 -9.19916 77.4095 -0.208977 110.977)
(79.6925 4.07513 -9.05506 82.3539 -0.559809 113.572)
(84.6391 5.66066 -8.88771 103.996 -2.6271 124.074)
(76.0184 -0.0174627 3.4206 72.6387 0.00157482 105.249)
(75.9726 -0.0196605 3.41739 72.5527 0.00100524 105.197)
(76.0687 -0.0348533 3.41588 72.7053 0.000900632 105.296)
(76.3017 -0.0745868 3.41368 73.0916 0.00122088 105.542)
(76.8325 -0.165829 3.40958 73.974 0.00216474 106.104)
(78.0655 -0.387164 3.40069 75.9994 0.00473264 107.401)
(81.0301 -1.01521 3.36892 80.6652 0.0212322 110.439)
(88.4261 -3.027 3.20861 91.0988 0.169846 117.55)
(107.064 -8.91007 2.87837 111.789 1.03244 133.289)
(69.3715 -0.00417786 -9.25922 56.9896 -0.0215985 73.1894)
(69.4212 -0.00798877 -9.25589 57.0581 -0.0149339 73.2238)
(69.4756 -0.00820134 -9.25022 57.0958 -0.0217739 73.2537)
(69.5046 0.0201139 -9.25887 57.1335 -0.0459588 73.3298)
(68.8861 0.0410215 -9.16685 57.0211 -0.11921 73.2175)
(69.764 -0.128711 -9.22994 57.6802 -0.333037 73.7635)
(70.6279 -0.127182 -9.20984 58.6984 -0.84722 74.5019)
(71.5831 -0.274692 -9.05063 60.9442 -2.08545 75.8056)
(76.7138 -0.284652 -9.28932 70.9516 -4.71495 79.0971)
(61.2127 0.00171657 -8.04075 50.6929 -0.030379 65.6483)
(61.3096 -0.0298864 -8.02422 50.8432 -0.0184619 65.6909)
(61.9868 -0.0940609 -8.07003 51.1406 -0.0258368 65.864)
(62.2548 0.0270795 -8.10037 51.2581 -0.123495 65.963)
(59.5879 0.0567815 -4.34903 46.7888 -0.171246 56.7851)
(63.2298 0.111914 -8.11373 52.7464 -0.22646 67.6681)
(63.016 -0.188377 -7.99083 53.2655 -0.972066 67.3556)
(65.9447 -0.220128 -4.62352 56.0854 -0.47329 62.4653)
(75.3113 0.162738 -5.48643 72.0486 1.58135 69.9125)
(56.6304 0.000829692 -6.24898 44.5094 -0.0206831 54.9373)
(56.08 0.0928969 -6.02346 44.2422 0.0537306 54.4316)
(59.8964 0.153384 -8.17909 48.9866 0.0164533 62.4881)
(58.8644 -0.0432751 -7.95083 47.9784 0.00491077 61.2201)
(52.5441 -0.0685439 -6.85053 44.2338 -0.167875 56.9034)
(56.7266 -0.0571407 -6.0175 45.3479 -0.241702 55.0547)
(57.7458 -0.0811629 -6.02533 47.0104 -0.3834 55.9648)
(55.2722 0.00478923 -6.7734 48.4561 -2.32243 59.4793)
(58.7569 -0.250881 -7.46061 57.1816 -3.66557 59.8187)
(55.6149 0.0537604 -6.97931 49.5714 -0.229206 68.0181)
(55.7252 0.0171873 -6.97083 49.6939 -0.194003 68.1161)
(61.5996 -0.115102 -8.90621 53.9199 -0.0341218 73.4627)
(62.0377 -0.0294182 -8.94274 54.447 -0.0452944 74.1333)
(61.8609 -0.02504 -8.91603 54.3187 -0.108491 74.0054)
(56.3073 0.0587658 -6.89585 50.4903 -0.52076 68.7955)
(56.8113 -0.200762 -6.88027 51.2083 -0.956979 69.1825)
(63.7082 -0.737519 -8.79758 57.1875 -1.75585 75.3607)
(67.1177 -0.479292 -9.93994 66.7438 -2.50133 76.2051)
(60.3883 -0.00355125 -7.28558 53.717 -0.0153622 73.8653)
(60.3721 -2.85422e-05 -7.28623 53.6873 -0.0127214 73.846)
(60.4229 -0.000625331 -7.28291 53.7069 -0.0200136 73.8001)
(60.4814 -0.0167154 -7.28568 53.767 -0.0451835 73.8368)
(60.5855 -0.0488892 -7.27896 53.912 -0.109296 73.9472)
(60.7897 -0.11689 -7.25976 54.2413 -0.270815 74.2323)
(61.3826 -0.259754 -7.22857 55.0345 -0.662682 74.8327)
(62.5558 -0.552381 -7.24052 56.8091 -1.52242 75.7844)
(64.9458 -0.404513 -8.30156 64.0721 -2.36536 75.708)
(53.1774 -0.00704045 -7.46363 46.2057 -0.0168265 62.2888)
(53.1599 -0.00720801 -7.46157 46.1752 -0.00976835 62.269)
(53.187 -0.012839 -7.45808 46.2028 -0.01655 62.2809)
(53.2305 -0.0204584 -7.45198 46.2603 -0.0474569 62.3149)
(53.3418 -0.0507741 -7.44349 46.4104 -0.115859 62.425)
(53.6174 -0.127175 -7.42191 46.776 -0.283598 62.6991)
(54.2537 -0.315196 -7.36333 47.6163 -0.680954 63.3136)
(55.5583 -0.712691 -7.30945 49.5676 -1.57516 64.4263)
(57.8426 -0.784089 -8.25571 56.7395 -2.65665 64.6287)
(52.2755 -0.00590626 -6.40382 45.8014 -0.0141616 62.1816)
(52.2601 -0.00605421 -6.40265 45.7746 -0.0102233 62.1647)
(52.2725 -0.010987 -6.39891 45.7972 -0.0187768 62.181)
(52.3196 -0.0231665 -6.39399 45.8547 -0.046969 62.2102)
(52.4342 -0.0535299 -6.38727 46.0068 -0.116089 62.3224)
(52.704 -0.130406 -6.37102 46.3692 -0.283562 62.5987)
(53.3189 -0.308404 -6.33102 47.1974 -0.681619 63.2287)
(54.4817 -0.642131 -6.35236 49.1213 -1.56632 64.3564)
(56.7377 0.0162025 -7.9995 57.8864 -1.45547 64.9532)
(50.9116 -0.00769653 -6.03865 44.3118 -0.0140468 59.8507)
(50.9078 -0.00598541 -6.03734 44.3057 -0.0109615 59.8462)
(50.9305 -0.0109381 -6.036 44.3358 -0.0203292 59.8676)
(50.9778 -0.0257817 -6.03126 44.3971 -0.0465472 59.9072)
(51.0935 -0.0576861 -6.02303 44.5479 -0.114215 60.019)
(51.3662 -0.137216 -6.00579 44.8998 -0.272663 60.2909)
(51.9675 -0.314166 -5.96832 45.6629 -0.634595 60.892)
(52.9376 -0.613565 -6.02331 47.1976 -1.3777 61.804)
(52.9206 0.141489 -7.7314 52.549 -1.72781 60.1767)
(47.1133 -0.00517279 -6.20782 40.4102 -0.0134188 53.8945)
(47.1153 -0.00629509 -6.20801 40.4095 -0.0111588 53.8952)
(47.138 -0.0133597 -6.20659 40.4409 -0.021294 53.9159)
(47.1876 -0.0310728 -6.20397 40.5105 -0.0492678 53.9682)
(47.3213 -0.0719625 -6.19565 40.6786 -0.118683 54.0922)
(47.6197 -0.169 -6.17263 41.0586 -0.283118 54.3778)
(48.2748 -0.390364 -6.1183 41.8926 -0.654017 55.0113)
(49.3822 -0.796005 -6.1641 43.7636 -1.42436 56.0202)
(50.475 0.461433 -8.38178 52.5455 -0.633158 55.7933)
(50.2686 -0.00723688 -5.68179 44.5715 -0.00906869 61.1688)
(50.2775 -0.00684213 -5.6819 44.5884 -0.0102917 61.1774)
(50.302 -0.0148796 -5.68117 44.6221 -0.022712 61.1997)
(50.3626 -0.0344442 -5.67796 44.6986 -0.0547853 61.2569)
(50.4908 -0.0825738 -5.66652 44.8647 -0.12631 61.3705)
(50.8114 -0.192238 -5.64356 45.2616 -0.293139 61.6724)
(51.4917 -0.428434 -5.59904 46.103 -0.667947 62.3167)
(52.4864 -0.818767 -5.6929 47.8275 -1.42621 63.2409)
(52.3397 0.582364 -7.88163 54.9175 -1.49283 62.258)
(41.8705 -0.00318673 -7.68481 35.4961 -0.0106404 46.8705)
(41.8838 -0.00772606 -7.68559 35.5151 -0.0111047 46.8808)
(41.9117 -0.0193673 -7.6847 35.5545 -0.0258545 46.9056)
(41.9812 -0.0468027 -7.67994 35.6443 -0.0613321 46.9691)
(42.1432 -0.109421 -7.67211 35.8554 -0.142944 47.1248)
(42.525 -0.25288 -7.6449 36.3333 -0.332689 47.4819)
(43.3422 -0.568857 -7.58359 37.3612 -0.754745 48.2296)
(44.6345 -1.15111 -7.67553 39.6371 -1.62626 49.4033)
(45.6359 0.214418 -10.0955 49.3028 -1.75584 50.1691)
(48.922 -0.00173838 -6.09679 44.6736 -0.00623314 62.7341)
(48.9217 -0.00904507 -6.09604 44.6764 -0.010389 62.7321)
(48.9519 -0.0249752 -6.09539 44.7174 -0.0269224 62.7589)
(49.0292 -0.0600306 -6.09192 44.8179 -0.064359 62.8289)
(49.2125 -0.139784 -6.08327 45.053 -0.14935 62.9965)
(49.6341 -0.321481 -6.06107 45.5848 -0.343808 63.3853)
(50.515 -0.714785 -6.02047 46.7271 -0.776016 64.1899)
(51.8687 -1.45667 -6.16903 49.2984 -1.67825 65.4918)
(53.1725 -0.472362 -8.45583 60.1811 -2.40907 67.6088)
(50.0254 0.00366237 -4.20011 46.4184 -0.00546383 65.9566)
(50.025 -0.0103414 -4.20205 46.4108 -0.0100223 65.9528)
(50.0573 -0.030397 -4.20141 46.4541 -0.0276585 65.982)
(50.1416 -0.0725162 -4.19845 46.564 -0.0654511 66.0595)
(50.3375 -0.166214 -4.19022 46.8165 -0.149238 66.2403)
(50.7632 -0.372756 -4.16662 47.3698 -0.337699 66.6459)
(51.6381 -0.807757 -4.13719 48.5445 -0.750907 67.482)
(52.8878 -1.62253 -4.31043 51.1253 -1.60071 68.8317)
(54.2903 -0.857918 -6.33866 62.0007 -2.34994 71.8445)
(52.0434 0.000647797 -2.52441 49.01 0.000794049 70.4057)
(52.037 -0.012973 -2.52394 48.9974 -0.00910356 70.3988)
(52.0719 -0.0367603 -2.52349 49.0428 -0.0260438 70.4297)
(52.161 -0.0854795 -2.5213 49.1578 -0.0609938 70.5107)
(52.3635 -0.190565 -2.51509 49.4165 -0.137114 70.6965)
(52.8028 -0.416924 -2.50031 49.972 -0.302867 71.1024)
(53.6496 -0.885276 -2.48674 51.101 -0.650602 71.8986)
(54.7863 -1.75574 -2.66654 53.5011 -1.34341 73.1566)
(55.5628 -1.79571 -4.38403 62.9764 -2.17122 75.7449)
(54.0068 0.000503246 -0.165535 51.7174 0.00104301 75.184)
(53.9947 -0.016295 -0.164372 51.6926 -0.0084845 75.17)
(54.0329 -0.0444348 -0.164292 51.7411 -0.0235111 75.2033)
(54.1293 -0.101528 -0.163448 51.8642 -0.0539383 75.2892)
(54.3449 -0.222927 -0.160572 52.136 -0.11876 75.4815)
(54.8042 -0.481003 -0.154075 52.7087 -0.256301 75.8901)
(55.6727 -1.01094 -0.159215 53.8541 -0.538242 76.6729)
(56.7825 -2.01107 -0.34514 56.2109 -1.10205 77.8939)
(57.0697 -2.52374 -1.74787 64.8026 -2.25245 80.5153)
(55.4897 0.000867208 2.73862 53.035 0.0010151 76.9764)
(55.4755 -0.0196484 2.73984 53.0044 -0.00723229 76.9593)
(55.5174 -0.0527392 2.73947 53.0573 -0.0195629 76.9958)
(55.6222 -0.119069 2.7391 53.1909 -0.0442255 77.0888)
(55.8538 -0.258487 2.73922 53.4827 -0.0961513 77.294)
(56.3412 -0.551947 2.73977 54.0926 -0.205109 77.724)
(57.2546 -1.15182 2.72592 55.3159 -0.426255 78.5491)
(58.4622 -2.28687 2.5714 57.9286 -0.866335 79.9385)
(59.5933 -2.66315 1.69142 68.1101 -1.78894 83.7904)
(57.6164 0.0022518 5.31509 53.611 0.00249651 76.2725)
(57.5996 -0.021836 5.31787 53.5741 -0.00574308 76.2507)
(57.6444 -0.0584758 5.31725 53.6299 -0.0153912 76.2906)
(57.7559 -0.130847 5.31603 53.772 -0.0343914 76.3914)
(57.9993 -0.281176 5.31405 54.0786 -0.0739601 76.6106)
(58.5032 -0.593234 5.30978 54.7099 -0.156262 77.0638)
(59.4264 -1.21908 5.29065 55.9556 -0.32447 77.9268)
(60.6161 -2.37435 5.18387 58.558 -0.685568 79.4225)
(61.5233 -3.27484 4.66235 67.8209 -1.8461 83.3385)
(50.5445 0.00280844 5.03733 48.1374 0.00010578 69.6471)
(50.5291 -0.0244844 5.03676 48.1003 -0.00414978 69.6272)
(50.5768 -0.0652586 5.03582 48.16 -0.0108723 69.6691)
(50.6943 -0.145177 5.03375 48.3111 -0.0240858 69.7744)
(50.9505 -0.310273 5.02972 48.6364 -0.0511405 70.0026)
(51.4822 -0.651701 5.02011 49.3058 -0.106124 70.4739)
(52.461 -1.33628 4.9878 50.636 -0.213771 71.3757)
(53.7128 -2.59884 4.85515 53.5131 -0.426692 72.9683)
(55.2081 -2.67933 4.48974 65.206 -0.918593 78.3187)
(54.2209 0.00403798 6.99987 49.2518 0.00150745 68.7559)
(54.2045 -0.0247424 7.00083 49.213 -0.00159316 68.7327)
(54.252 -0.0660201 6.99994 49.2719 -0.00410849 68.7758)
(54.3677 -0.145923 6.99797 49.4208 -0.00898391 68.8828)
(54.6175 -0.309421 6.99394 49.738 -0.0189471 69.1121)
(55.1299 -0.644021 6.9842 50.3821 -0.0388074 69.5797)
(56.052 -1.30517 6.95542 51.6332 -0.0768027 70.4577)
(57.1344 -2.50049 6.86862 54.2436 -0.158281 71.943)
(57.721 -2.78447 6.69079 64.5053 -0.471132 76.1699)
(60.8219 -0.0013602 -3.37517 47.4179 0.00525976 57.4389)
(60.7263 -0.0076772 -3.37832 47.2459 0.00883247 57.3484)
(60.7746 -0.00191765 -3.38681 47.2754 0.00781092 57.3811)
(60.8283 0.0323261 -3.37378 47.3645 -0.00949322 57.4019)
(60.9089 0.0340181 -3.29556 47.6297 0.0280996 57.4324)
(61.4761 -4.3218e-05 -3.34619 48.4431 0.160837 57.9927)
(62.8774 0.0809471 -3.39291 50.5488 0.329758 59.3256)
(66.3759 0.193949 -3.35968 56.0277 1.04268 62.7046)
(75.728 0.318237 -3.17007 69.1961 4.26567 73.1672)
(55.7024 -0.00251661 -3.87469 42.7795 0.0141748 50.8397)
(55.5973 -0.0198429 -3.88948 42.5927 0.0373194 50.7661)
(55.7277 -0.0335389 -3.96374 42.7083 0.0604362 51.0014)
(55.897 -0.0343085 -4.01816 42.8234 -0.00566821 51.1594)
(56.1783 -0.2003 -4.05101 42.6871 0.0344315 49.8257)
(56.5494 0.164359 -3.96814 43.9572 0.20066 51.5001)
(57.8545 0.0379305 -3.94111 46.0081 0.395584 52.9222)
(61.17 0.131336 -4.02418 50.0611 1.30624 54.8083)
(69.9303 1.14048 -3.869 62.0936 4.30015 64.8706)
(56.3804 -0.114538 -3.22414 43.4801 0.0329212 52.6358)
(56.3983 -0.0553897 -3.20842 43.583 0.00315795 52.6373)
(56.0715 0.194106 -2.99451 43.6098 0.0363685 52.7488)
(56.252 0.0120497 -2.9465 43.8496 0.00367635 53.0363)
(56.3365 -0.0224294 -2.95038 44.0445 0.0348647 53.0377)