/*--------------------------------*- C++ -*----------------------------------*\
| =========                 |                                                 |
| \\      /  F ield         | foam-extend: Open Source CFD                    |
|  \\    /   O peration     | Version:     3.1                                |
|   \\  /    A nd           | Web:         http://www.extend-project.de       |
|    \\/     M anipulation  |                                                 |
\*---------------------------------------------------------------------------*/
FoamFile
{
    version     2.0;
    format      ascii;
    class       volScalarField;
    location    "172800";
    object      DSigmaHyd;
}
// * * * * * * * * * * * * * * * * * * * * * * * * * * * * * * * * * * * * * //

dimensions      [1 -1 -2 0 0 0 0];

internalField   nonuniform List<scalar> 
21211
(
43.9665
44.0259
44.0589
44.1173
44.194
44.6691
45.6913
48.0778
54.8994
58.2432
58.1068
58.1359
58.2053
58.3955
58.9952
60.5808
64.8092
76.0527
44.627
44.7166
44.7485
44.8151
44.9683
45.3944
46.4669
49.1139
57.0107
57.0845
56.947
56.9775
57.0695
57.2979
57.9173
59.5881
64.1606
76.4453
45.569
45.7133
45.7512
45.8278
46.0015
46.4434
47.5535
50.2873
58.1704
58.7142
58.5937
58.6299
58.729
58.9722
59.6151
61.3283
65.9546
77.9363
47.9201
48.0438
48.0811
48.1579
48.3387
48.803
49.9751
52.9149
61.7397
60.98
60.9326
60.9733
61.0768
61.3352
62.0161
63.8319
68.7379
81.6636
49.023
49.2086
49.2519
49.3317
49.5237
50.0092
51.2234
54.2304
63.3665
60.7418
60.7877
60.8394
60.9507
61.2259
61.9455
63.8537
68.9834
82.2996
54.8903
55.0253
55.0669
55.1505
55.3408
55.8506
57.1515
60.3364
69.9432
62.5869
62.7211
62.7794
62.8938
63.1804
63.9353
65.9372
71.3042
85.4448
45.3961
45.5069
45.5517
45.6448
45.868
46.43
47.8311
51.2625
61.8103
63.8655
64.111
64.1792
64.3027
64.6135
65.4128
67.5162
73.1865
87.9859
60.2102
60.2681
60.302
60.392
60.6212
61.1729
62.5901
65.9667
76.1061
68.0141
68.2845
68.3529
68.4828
68.8111
69.6526
71.8524
77.6296
92.3461
52.5927
52.5861
52.6193
52.7264
52.9811
53.6017
55.0994
58.694
69.7727
71.6831
71.8964
71.9616
72.0986
72.443
73.3252
75.6217
81.7497
97.3589
58.8857
58.8669
58.9092
59.0238
59.2829
59.9423
61.4612
65.38
76.9048
74.5682
74.7182
74.7886
74.9405
75.3073
76.2255
78.6157
84.9861
100.453
59.7554
59.6882
59.7221
59.8436
60.1597
61.0352
79.9941
65.8976
78.9674
76.4594
76.4468
76.5136
76.6948
77.1718
78.4954
82.73
88.6176
104.588
65.7862
65.7802
65.8322
65.9587
66.2539
66.7794
61.0411
73.4699
85.4171
81.1621
81.0959
81.1612
81.3423
81.7771
82.8189
85.2818
92.7146
109.806
70.9878
71.0718
71.1342
71.2719
71.5972
72.3428
73.7451
77.6682
91.2212
79.6866
79.5619
79.6331
79.8387
80.3375
81.5566
84.6035
92.265
110.407
73.7377
73.9056
73.9797
74.1306
74.4825
75.2842
77.0355
80.8703
94.7675
81.4718
81.4179
81.5053
81.7345
82.2819
83.5997
86.8266
94.7571
113.262
80.7022
80.868
80.9462
81.1061
81.4724
82.2889
84.0274
87.7674
100.534
83.895
83.8239
83.9158
84.1616
84.7426
86.1217
89.4425
97.4534
115.786
79.3771
79.5163
79.5986
79.7702
80.1591
81.0154
82.8121
86.6423
101.258
85.2257
85.1945
85.2989
85.5626
86.1788
87.6301
91.1027
99.4244
118.409
82.4914
82.6274
82.7135
82.8904
83.284
84.1272
85.826
89.3257
103.459
85.6257
85.5687
85.6772
85.9541
86.5946
88.0842
91.5868
99.739
117.378
83.5062
83.6385
83.7264
83.9068
84.305
85.1488
86.8172
90.109
102.451
86.4152
86.3624
86.4753
86.7611
87.4186
88.9427
92.5231
100.886
119.218
85.6818
85.7872
85.8747
86.0541
86.4448
87.2606
88.8374
91.8728
104.236
84.6353
84.5741
84.6899
84.9784
85.6369
87.1553
90.7115
99.0251
117.381
66.5169
66.5677
66.6084
66.656
66.3749
67.0692
67.9427
69.4443
75.5875
59.1846
59.2812
59.6638
59.8253
54.3873
61.2148
61.2124
61.4985
72.4241
52.0257
51.5846
57.1237
56.021
51.2271
52.3764
53.5737
54.4026
58.5857
57.7348
57.8451
62.9941
63.5393
63.395
58.531
59.0673
65.4188
70.0222
62.6569
62.6352
62.6433
62.695
62.8149
63.0878
63.75
65.0498
68.242
53.8906
53.868
53.8902
53.9352
54.0591
54.3642
55.0612
56.5174
59.7369
53.4195
53.3998
53.4169
53.4615
53.5878
53.8907
54.5817
55.9865
59.8591
51.6914
51.6866
51.7113
51.7607
51.8868
52.1856
52.8408
53.9797
55.2154
47.1393
47.14
47.1649
47.2221
47.364
47.6854
48.3929
49.722
52.938
52.0029
52.0144
52.0413
52.1061
52.242
52.5818
53.3038
54.5182
56.505
41.4124
41.4266
41.4573
41.5315
41.7078
42.1134
42.9777
44.5583
48.3693
52.1099
52.1101
52.1427
52.2253
52.4207
52.8681
53.8107
55.553
60.3208
54.1335
54.1295
54.1644
54.255
54.4648
54.9263
55.8882
57.615
62.7118
57.1531
57.1444
57.1815
57.2765
57.4921
57.959
58.8831
60.4813
64.7614
60.3028
60.2858
60.3258
60.4276
60.6541
61.1343
62.0666
63.6291
67.4625
61.8337
61.8131
61.8568
61.9673
62.2102
62.7193
63.7065
65.4431
70.4979
62.4999
62.4748
62.5216
62.6397
62.8962
63.4256
64.4362
66.1989
70.8943
56.1097
56.0855
56.1353
56.2599
56.5298
57.0873
58.1575
60.0647
66.2443
57.4096
57.3834
57.4332
57.5571
57.8226
58.3639
59.381
61.107
66.1321
55.2262
55.1069
55.1437
55.1982
55.3237
55.9706
57.5839
61.7027
72.6971
49.7739
49.652
49.8125
49.9599
49.5637
50.6689
52.2616
55.3464
65.6315
50.8321
50.8729
50.81
51.046
51.1395
51.8641
53.0434
57.0865
67.2256
49.0595
48.9825
48.8488
48.8832
49.0817
49.8221
51.2516
54.7994
64.2663
48.8189
48.7572
48.7763
48.8546
49.0598
49.5827
50.8738
54.1587
62.525
45.9136
45.8803
45.9173
46.0028
46.2032
46.7026
47.978
51.321
60.0972
45.1083
45.0883
45.1234
45.2056
45.4032
45.8939
47.1418
50.3308
58.2966
46.7309
46.7205
46.7561
46.8389
47.0357
47.5125
48.6847
51.6139
59.0398
46.5028
46.5102
46.5476
46.6361
46.8451
47.3519
48.6174
51.811
59.9324
47.8944
47.8883
47.9276
48.0242
48.2522
48.7981
50.1206
53.3686
61.3782
49.4745
49.4767
49.5199
49.6307
49.8947
50.5213
52.051
55.8182
64.8044
52.1423
52.1292
52.178
52.3069
52.612
53.334
55.0752
59.3205
69.142
52.5922
52.5839
52.6369
52.7766
53.1022
53.8575
55.6341
59.8236
69.1982
54.5097
54.4978
54.5561
54.7052
55.0454
55.8152
57.5791
61.6197
70.4148
55.6561
55.6641
55.7299
55.8918
56.2554
57.0669
58.8994
63.0342
71.8081
55.8006
55.8214
55.8946
56.0705
56.4613
57.3255
59.2582
63.5793
72.691
54.0749
54.1134
54.1932
54.3804
54.7921
55.6908
57.6655
61.9832
70.8477
53.2222
53.2685
53.3518
53.5443
53.9658
54.8846
56.9119
61.3777
70.6196
50.7256
50.7841
50.8689
51.0619
51.4809
52.3854
54.3599
58.6799
67.6873
41.4063
40.0464
37.5834
36.629
34.1913
32.9703
30.7216
29.8485
29.4873
28.6628
27.6062
26.0333
25.7973
27.6088
28.7881
30.0641
31.3859
30.4874
28.7808
39.2734
37.421
35.2287
34.5363
32.0561
31.1495
29.5246
28.2842
26.7757
25.9971
23.821
22.584
23.6246
27.6788
30.2686
31.2537
28.5788
27.1327
27.678
39.3216
38.8149
36.4226
34.3943
33.1465
32.0142
29.9996
28.7118
28.4308
27.1885
26.3834
26.2864
26.3344
27.7136
30.116
30.1435
28.0088
27.9726
28.2089
38.8021
35.8084
31.7399
31.545
31.0917
29.5677
28.7547
27.1527
26.8479
25.5887
24.1201
22.1745
22.0564
25.2238
29.524
29.9144
29.1765
26.5895
25.6481
37.4378
35.3139
35.124
33.5645
30.6481
30.5418
29.4066
28.8466
27.1862
27.4404
26.0185
25.8792
27.0774
28.3201
28.6398
28.6296
26.922
25.4778
26.6494
36.7743
35.1968
30.6489
27.4162
28.0292
28.5048
28.1004
28.1336
26.4089
28.9685
24.3265
23.7135
21.9062
23.8758
25.3322
27.0294
27.45
27.2368
25.6399
37.3313
34.2289
31.6131
32.2543
30.4451
28.669
29.1608
28.0774
28.1662
26.1761
26.3729
26.1882
26.9762
27.9505
27.372
22.9499
26.2743
25.5929
25.2937
33.1337
32.7538
30.6452
27.1331
25.9976
26.6546
27.6653
28.8345
28.8999
25.715
25.0982
23.1693
23.4824
23.2111
22.4509
22.7967
24.6211
25.7624
26.8293
36.2511
35.265
30.8731
27.4774
30.838
28.905
26.5509
27.8559
27.78
27.8744
27.1383
28.8819
26.8519
26.4047
24.9748
24.7141
21.7179
25.0242
25.5415
32.0125
30.2185
28.6184
27.7404
29.8102
28.4945
27.672
27.753
28.021
29.3455
25.0875
31.2219
25.1733
26.876
21.997
19.3741
21.6606
23.8266
26.4155
35.0377
35.1456
32.6868
28.3882
27.9359
30.415
26.7198
26.0667
27.8038
27.7648
28.8652
29.3047
27.3001
23.5133
22.1156
24.3355
25.0427
24.8715
26.3999
33.026
31.5325
30.9129
30.3102
29.7056
28.0811
24.9328
27.4393
24.5089
26.118
28.9778
27.4788
28.6643
25.1606
20.5755
20.2259
20.082
21.4852
24.16
35.4048
35.9089
34.5275
32.7475
28.9747
30.2602
29.5377
28.32
24.2977
27.5282
29.6868
28.9198
26.2739
24.4847
22.0922
22.5453
25.9833
26.0608
28.163
36.9505
34.3554
31.9348
29.718
26.7099
36.0022
27.5392
25.0001
25.5583
25.1262
26.1804
29.0894
26.1419
26.1296
23.878
18.9755
20.0468
19.8414
22.9675
38.0013
36.0784
35.6091
34.9422
32.8455
31.5107
27.1829
29.6486
29.0608
27.7664
28.2
27.5535
24.9746
26.0539
23.4148
24.6683
26.1854
29.3705
30.7842
37.1328
34.5242
32.7709
29.9531
26.5191
25.3766
35.898
26.303
25.5837
24.7141
24.2292
24.4308
26.7653
22.289
24.2553
22.981
22.048
22.3888
23.6051
38.5064
37.5039
35.6218
35.2158
32.9233
30.3004
31.8091
28.7485
30.8335
28.7022
24.3857
23.6429
24.878
23.6827
23.9286
25.956
28.8909
30.7526
31.8791
36.4653
34.3126
30.7139
39.3705
28.9927
26.4866
24.7632
35.617
26.3697
24.4774
21.4196
18.3635
23.463
24.8077
24.0118
22.481
24.6361
25.6252
27.0616
39.1752
36.2437
34.7584
33.8512
34.3355
32.5812
32.1099
30.0462
27.727
27.2768
26.9402
22.6477
25.1913
25.6977
26.1593
27.7249
29.6229
30.2551
28.821
36.183
33.9619
30.8527
27.1637
37.7681
29.4411
27.7152
24.6846
33.4468
24.7247
26.3523
21.9303
21.8496
24.7742
24.1491
25.5309
26.6886
28.3949
27.5813
37.225
34.7327
33.093
34.8821
33.4408
34.2522
33.6965
31.3026
25.9936
29.8663
25.6198
27.0132
24.6291
28.8937
27.8432
28.1193
28.5536
27.9411
28.0529
36.25
33.479
29.7442
37.4768
30.6435
31.6071
27.7087
26.1053
19.8744
30.7701
23.1893
20.4495
21.1799
23.9412
25.9831
26.7316
27.9872
27.813
26.3522
35.8983
33.7239
32.1633
32.3715
34.3049
34.1647
32.8845
29.7964
25.5876
25.2904
30.9861
27.6537
27.2285
28.5078
28.6292
27.5292
27.5944
27.4073
27.094
35.7718
33.5724
31.6106
31.5592
31.7203
28.0514
34.1497
26.2045
26.7462
18.8984
30.0698
23.0954
22.6487
24.3146
25.6431
26.6891
27.0838
26.079
26.2807
37.7719
35.7488
34.2717
34.2369
33.22
32.2632
29.1616
29.0368
27.0546
24.9942
25.4495
25.0696
28.9059
29.1666
27.3013
28.0148
28.0315
28.7875
28.0149
37.323
34.4963
34.1442
33.6748
29.1819
34.5823
21.4336
31.0049
21.5409
21.2882
21.2048
24.6611
23.8317
26.1915
25.054
26.5076
26.2715
26.6321
26.1906
40.8384
39.3528
38.7396
36.4294
32.1505
27.2978
28.4201
26.9341
27.6828
27.0073
27.0381
28.1212
27.9021
31.3988
28.8512
28.0498
29.5838
29.6607
29.5707
39.1761
37.7733
36.8262
33.8497
35.7863
20.766
31.811
19.6865
29.3029
23.0415
21.1088
25.3012
24.5374
27.7269
27.1011
25.8991
27.8601
27.4796
28.3351
44.3939
44.3229
41.5989
35.6215
27.0927
27.2747
25.0989
27.5454
27.2123
28.4048
30.0005
30.6641
28.8877
30.3315
32.2427
31.2944
30.3912
31.7747
30.7578
41.9597
41.0444
37.4902
36.1274
21.2053
33.6108
18.7634
29.4984
21.9802
24.9648
24.632
22.8038
25.6471
28.6805
29.9083
27.4303
27.9457
30.3599
29.8027
48.8842
46.1442
41.6451
38.7953
42.4258
23.4283
26.2384
26.3758
29.2433
30.7636
31.9883
33.113
32.78
30.7016
30.3393
33.0974
34.3632
33.8545
34.0181
45.3904
41.9415
36.9186
43.4198
35.9142
21.3107
31.4001
21.8359
26.6158
27.2606
27.6912
27.6557
28.1007
30.6618
31.3353
30.949
29.2966
30.6589
32.7174
48.9705
44.4404
40.3378
30.0285
38.0645
43.2879
26.8473
28.605
30.6326
33.7781
34.5854
34.3235
34.9908
35.5515
32.217
32.1058
35.9033
36.2081
34.5346
44.3551
41.0682
37.1929
25.2697
44.0215
35.5731
23.0083
30.0476
25.4098
27.7
30.3651
30.8817
31.012
33.26
32.3639
34.2492
33.1182
31.3434
32.304
46.1341
40.5627
40.0997
39.5739
37.5439
38.4437
32.5665
31.4782
32.6502
36.2636
36.4599
35.4206
35.067
38.1764
37.9559
35.7868
35.5297
38.6064
36.4939
41.7026
39.6883
37.3651
35.7076
30.1403
43.9474
30.1141
31.3044
30.0621
32.2038
32.5893
33.6284
34.0801
36.1984
35.2503
35.1584
37.1482
35.0205
34.1634
43.4104
53.1846
40.7608
40.1309
41.2202
38.1474
39.4454
33.056
35.5621
37.8395
37.8177
37.6387
38.3143
39.8369
40.1208
40.0777
38.8081
37.5548
38.3451
39.857
41.2817
37.703
35.5383
44.3159
28.0597
47.5764
29.522
34.5212
34.6421
36.2124
36.5515
36.65
39.8111
39.155
36.8089
38.6887
39.9391
36.9706
98.455
84.2525
92.9512
102.135
92.1397
82.2699
78.0306
72.5859
67.7412
62.3028
60.7078
58.6123
54.1406
49.8091
49.2045
45.1524
41.7128
40.8183
42.5434
90.7381
104.635
103.908
104.697
99.7713
91.0025
82.8991
78.24
72.0885
64.7784
63.5242
59.4106
53.8637
50.6069
47.3191
42.252
43.0122
42.7583
40.4978
105.482
88.6241
99.6224
88.3434
81.7925
93.4816
85.7609
77.8856
73.2439
66.0315
64.4507
62.1354
55.6187
54.6019
49.8056
44.1336
40.3395
41.6448
41.1852
107.15
111.126
109.029
105.27
100.753
99.6763
94.8525
82.7066
77.5554
69.2183
65.5288
59.3256
56.2928
56.8194
48.7795
44.6784
44.7447
43.6734
42.0387
100.514
87.5384
101.265
98.4098
91.4935
98.1402
89.3198
82.0456
74.6265
70.482
64.9323
60.3864
57.1328
57.9527
51.7302
43.6084
44.9897
44.25
42.3014
96.6748
109.314
109.441
107.637
104.086
103.916
97.0759
88.2427
78.724
73.7295
68.3497
63.6389
61.9145
58.3528
48.8148
46.2377
46.3995
44.6171
39.0054
113.036
101.286
112.191
106.11
96.9534
86.0383
75.4298
89.7703
81.0312
75.1989
66.1105
62.3147
59.8164
57.5702
49.8629
46.8396
48.8377
44.8629
40.1701
102.168
115.13
115.517
113.365
108.181
101.71
94.8389
92.3914
81.9627
79.3481
71.5835
67.1588
64.4665
55.2286
49.8457
50.7163
49.537
44.7253
36.4072
110.031
101.554
112.367
104.025
95.6127
92.9384
91.7007
90.0235
82.5395
76.9084
72.2085
64.3658
61.7196
56.7276
51.3976
52.4465
48.0877
42.4899
38.5052
103.235
118.832
120.043
114.635
107.615
102.413
97.8071
95.853
90.0779
82.6525
73.1652
69.4433
64.5676
55.7644
53.0397
53.3861
48.2262
40.1108
35.009
115.719
102.273
120.767
102.828
102.843
94.2632
87.8742
98.5469
88.1088
76.9483
72.5937
68.8533
64.3882
56.8516
54.373
52.0544
46.9909
41.4231
37.2049
108.373
117.068
119.07
113.196
108.46
105.002
99.9372
99.3008
93.0374
84.5592
78.1634
70.7785
66.0086
56.3954
57.4405
53.0826
44.4699
38.098
34.3986
123.343
110.651
109.376
111.6
109.234
99.565
97.0113
85.2333
79.618
86.3194
75.7708
69.7446
63.4527
58.205
56.8572
50.5708
45.5487
40.2218
37.1263
111.884
125.93
124.15
120.209
113.801
108.703
104.084
96.167
91.1409
88.1031
81.0127
72.55
64.5278
58.2555
61.0634
50.3052
42.0458
36.7581
36.4496
104.537
120.607
123.097
110.736
116.164
105.513
100.352
91.6382
94.0095
85.1855
79.1148
70.3189
64.4601
59.8282
56.3688
50.381
43.9759
39.2581
37.274
111.972
124.343
128.488
122.451
118.117
112.341
106.536
97.9278
92.1194
89.0872
80.1676
73.3968
65.0977
61.6924
58.6054
48.0305
39.8234
37.9844
39.3094
108.299
137.123
130.661
121.636
115.807
110.063
89.7575
88.8174
93.8449
87.5356
79.1875
71.118
64.4588
58.7071
57.4604
51.1462
43.3782
40.9517
40.3707
120.222
135.735
133.553
126.35
121.6
113.586
103.838
99.6883
94.4086
89.1611
82.6989
76.0563
68.0615
61.1384
57.9503
48.5944
40.6918
41.6343
40.1399
115.756
132.258
130.33
117.098
114.96
111.913
100.723
101.382
86.7356
87.4253
78.2891
76.9995
66.7704
58.7447
58.7187
51.2966
43.272
42.0497
40.9723
120.732
136.779
138.602
128.609
124.374
117.52
111.001
106.248
96.6062
90.4428
84.5979
73.9901
71.2007
62.08
57.8627
48.6543
46.2896
43.9684
39.4344
130.236
136.538
137.038
134.027
116.348
114.806
109.246
99.3171
96.9271
95.0508
76.5907
78.1786
66.8871
60.1944
57.9223
52.3756
43.8707
41.72
38.9904
128.624
139.038
142.234
134.263
124.881
119.36
117.682
103.33
99.9374
98.8375
83.0663
75.5979
71.2634
64.401
57.9394
51.5189
48.666
44.3455
39.1273
121.549
131.737
131.659
131.085
123.387
113.732
104.976
94.193
101.32
92.7345
79.8616
75.5068
70.5418
63.6199
56.5518
50.9622
46.3645
43.344
39.1945
126.594
142.152
140.952
139.74
133.054
125.278
114.053
104.951
102.355
95.5776
85.3774
78.6816
70.6012
66.5628
58.0076
50.836
49.0916
44.6624
38.8235
143.228
154.974
143.684
140.099
123.27
125.719
113.952
102.68
109.854
87.0633
82.8479
75.7394
68.9444
63.9654
58.1065
50.25
47.3154
45.3512
39.8409
135.652
153.055
146.052
138.545
132.945
127.597
118.174
110.724
103.8
95.0811
87.7179
79.503
68.1852
64.7102
59.4618
50.9321
47.6987
45.3349
37.0319
142.573
152.186
139.332
142.332
137.674
130.37
111.591
115.437
96.8015
90.758
82.5857
80.6522
69.0983
64.0597
60.9161
50.7585
48.2535
46.6667
42.5585
134.905
149.564
147.732
149.133
139.375
130.821
120.726
112.149
99.5703
92.7167
86.7405
76.9868
70.8422
60.0275
58.9772
51.6972
47.7216
46.6669
43.3526
147.405
159.896
157.87
142.242
127.503
126.991
122.198
111.157
101.32
95.9196
84.751
81.5312
69.9106
62.2433
62.8311
56.5726
52.158
49.7862
46.8667
139.347
157.34
155.385
146.5
138.065
130.9
122.005
110.508
102.466
99.5332
91.6619
78.857
75.4733
62.4336
58.709
57.9741
48.9656
45.5986
43.8466
157.199
163.504
153.073
156.821
146.581
121.966
110.5
115.027
111.853
96.951
84.9797
80.303
73.8518
65.8896
62.9882
62.3109
56.818
53.5243
50.59
144.065
160.152
151.427
150.505
141.815
127.321
118.476
109.881
108.425
101.246
89.3952
83.5851
75.3299
69.3806
61.8042
61.4452
54.227
47.4199
45.9657
155.849
161.695
155.515
147.873
143.801
132.392
126.322
114.264
122.732
89.0177
87.2761
83.2799
74.4592
69.3125
63.887
63.8802
58.2364
53.2741
51.5932
136.971
158.201
154.475
148.008
138.431
130.001
123.558
116.535
109.913
97.3838
91.071
85.0504
74.9115
71.1402
65.5693
61.2686
59.3894
50.8348
46.6939
153.762
178.901
159.946
156.388
130.612
135.359
131.799
119.021
109.528
99.0984
89.1054
81.0014
78.9381
68.8506
66.1199
61.1671
59.6534
53.5369
49.8433
139.217
151.581
149.317
143.604
135.549
129.701
125.448
117.786
106.469
99.895
94.396
79.7976
76.8618
69.1717
67.1666
58.6957
58.9436
52.9986
44.7339
153.716
173.317
157.62
167.597
145.764
139.905
124.732
109.568
112.994
107.722
92.1691
84.97
77.6467
71.257
65.7696
59.2739
58.0568
53.5314
47.5687
136.486
150.143
153.678
147.673
142.459
137.386
128.385
119.065
110.077
109.744
95.9007
85.1792
76.7606
70.468
66.0108
59.086
54.3005
53.0098
45.139
96.4595
106.092
119.088
90.4653
80.5741
77.1402
69.4469
65.3736
63.7352
57.1038
52.8006
54.2336
50.1824
46.2106
47.6665
44.9474
40.7062
39.1076
40.799
77.0399
91.8989
86.3791
78.8918
73.528
66.4681
60.2968
62.1906
56.6637
51.221
49.9411
49.8623
45.879
44.5854
44.9374
40.9268
38.891
37.4196
38.8476
84.445
89.0194
78.6111
75.186
68.851
60.1896
52.053
51.7722
48.1847
44.3198
44.0566
44.8778
41.9715
42.0096
41.3845
37.8717
35.953
37.1628
39.2415
103.958
103.119
87.22
66.9514
56.4711
49.417
43.7954
45.3513
43.6045
39.813
40.0317
40.672
39.3151
39.4195
39.1266
35.0138
32.4805
34.4556
38.1685
90.5357
101.857
81.132
64.3035
55.6387
45.4199
41.4094
39.1792
38.6854
36.5357
37.2862
37.1966
36.8473
36.7287
35.3793
33.4991
31.4647
33.0303
36.6365
76.628
98.7377
70.7117
56.2105
40.4094
37.2017
36.5349
34.3096
33.919
34.6728
33.0341
34.1334
34.9933
34.1322
33.2058
32.4589
31.6045
32.5067
33.7862
102.039
91.0745
63.3452
47.8741
39.8731
34.4077
30.9004
30.7087
32.4325
31.5657
31.7541
32.2683
32.89
33.2186
32.5559
31.2609
29.4065
31.2756
32.5066
59.687
80.8103
55.947
49.7385
33.6354
29.8605
28.5607
27.6351
27.6995
30.5352
30.2921
31.1404
33.0275
33.46
31.5614
30.2447
28.8085
32.1337
30.426
93.4522
88.0304
58.3275
45.8935
35.6857
31.5103
24.5265
26.3609
29.5076
28.9217
30.5412
31.6221
33.5978
33.9202
33.0404
29.6511
28.5586
32.7162
30.1573
72.2453
64.4108
61.8531
46.6378
36.6925
30.5563
28.7752
26.8982
29.8599
30.1873
31.593
31.3344
33.5454
32.6988
32.7952
28.5086
28.614
31.1214
28.8855
76.9668
78.2611
69.8147
47.5838
40.7085
35.1048
32.0643
28.5753
31.1842
30.1501
32.8001
32.3169
34.1283
32.0968
34.3004
30.961
27.1582
28.1058
27.8273
86.5987
89.2196
58.1103
49.8554
50.4295
36.809
34.2293
32.5197
32.1731
32.9394
34.6374
33.9237
36.9161
32.9177
35.502
32.7585
28.7871
26.552
26.2744
94.7765
88.8197
71.9666
64.9936
52.227
43.872
40.336
37.476
37.7726
37.6208
36.1804
35.9261
37.5356
32.7632
32.1932
33.5736
29.5091
27.5176
26.1811
84.7936
95.2762
87.8144
61.6244
51.7218
50.5176
44.3655
41.1068
40.187
40.0055
37.4522
36.0922
33.1038
34.2848
31.6314
30.2892
30.1954
28.4258
27.6083
89.1516
89.3144
85.6014
80.8798
69.5496
50.6155
44.43
42.8409
41.8734
37.7565
35.4327
35.0472
32.4305
33.691
30.9161
30.1807
29.8712
29.9161
28.4333
94.6768
98.735
99.1227
76.1108
72.2691
51.7425
44.9524
41.4685
39.8243
37.5068
36.1097
34.1648
32.1712
32.42
31.8263
30.9039
31.3757
30.5552
31.1844
88.9022
102.818
93.6478
80.5894
64.808
48.1897
43.8217
40.0109
36.8996
36.8589
35.8873
35.4087
33.3132
31.9055
32.9206
32.4762
33.05
33.4339
32.8278
102.681
90.8623
87.1214
82.3485
66.721
48.8578
43.7323
41.7011
38.8295
38.0792
38.4391
36.3734
35.7864
34.8038
34.1598
34.4981
33.7795
33.8124
32.6623
95.5887
100.187
84.2209
71.4361
60.819
49.8874
44.1866
41.47
39.5259
37.6346
37.9951
36.9977
35.1385
35.221
33.1531
33.0985
32.2022
31.2232
31.1335
85.3934
93.3477
92.5425
95.9688
85.7255
79.9067
73.3194
67.7269
62.3234
56.9308
55.7553
53.821
50.5124
49.7367
47.4702
42.6549
40.914
40.0155
39.5281
81.3747
100.95
83.5366
76.6087
78.7702
66.5804
62.6157
58.9231
54.7109
50.8491
50.0514
48.0191
45.8757
46.5034
44.2505
37.8911
36.0255
36.5421
36.7776
77.0047
82.0775
77.3525
70.0006
71.7995
59.2749
55.1451
49.9338
46.3345
43.3605
43.9217
42.4684
40.9017
42.5687
40.9286
35.0331
35.2901
36.9459
36.6582
70.6282
82.36
75.7875
62.7818
60.4917
48.8321
41.8723
41.5724
39.5917
38.8089
39.2966
38.836
38.4365
40.6514
36.9874
33.3916
34.6303
35.225
36.1271
63.9757
74.6104
67.1236
59.5763
54.2482
42.2919
39.4422
34.7252
34.9453
34.6483
34.708
34.5898
35.4876
36.1538
34.4171
32.8689
32.2054
33.9763
35.1774
68.418
67.8928
61.7153
53.1202
40.4906
35.2395
31.0375
29.1842
29.4335
32.1804
31.5185
31.7778
32.1036
34.0232
33.9563
29.8318
30.8593
33.1608
33.5253
59.5719
63.6606
57.8946
43.6329
34.0787
30.2354
26.5722
24.7757
26.7923
28.2632
28.6568
28.8926
30.8165
33.5347
31.6816
29.5518
30.5877
31.9469
31.5374
55.0196
60.7322
49.461
42.7469
30.8188
25.7894
22.0308
22.9509
23.2092
26.9961
28.2504
28.3694
32.3564
34.0533
31.9355
30.318
30.5895
32.5349
30.0143
58.3774
63.4196
51.9874
45.6693
30.8722
28.1821
20.6841
19.9851
23.9478
26.2237
28.43
29.86
32.7099
34.9766
34.4325
32.3295
30.2979
31.0884
28.2148
59.4536
64.2955
54.2238
46.3704
36.4988
29.2485
20.0883
22.6664
25.0905
28.9431
30.1545
32.5435
36.5505
36.2232
33.7334
33.2955
29.9979
29.1732
26.1423
65.9423
69.2586
60.1239
52.5693
41.6323
35.7577
28.9185
25.3292
29.8526
32.697
33.2811
34.2543
38.8654
36.625
35.4414
32.951
28.5577
28.0328
24.8569
73.8967
72.7798
64.2303
53.106
50.3823
41.4888
34.9369
33.7706
33.5986
35.3042
38.4613
37.8018
37.7587
34.8547
36.0851
32.3857
28.0335
28.9134
25.3386
73.943
81.1974
74.497
66.0659
59.2613
48.7387
46.0462
40.2702
39.7431
37.0908
38.8117
38.6528
35.365
34.0153
32.5707
30.5339
27.4519
28.4411
27.4798
74.0844
82.9395
78.8092
67.8427
58.2738
52.382
45.718
39.3978
40.6982
40.4936
36.8358
35.1453
33.8282
31.1308
30.5928
29.8203
27.4867
27.0373
28.6914
77.2967
87.2901
82.2015
71.1803
60.1777
53.0116
47.0636
42.581
39.3709
38.2663
36.983
33.3409
32.3779
32.1737
28.9301
30.8742
28.827
26.3654
28.5594
79.3842
85.8574
80.1297
68.9303
59.5602
51.5814
44.2542
38.9968
37.4023
34.8523
35.4003
34.8392
30.6426
31.915
29.4667
29.3716
31.4624
28.6213
28.325
77.7849
80.0894
76.621
65.9041
56.0659
49.2413
42.5035
36.2753
35.5093
34.8735
32.1657
34.0533
32.4094
29.9469
32.1752
30.0456
32.2711
32.5031
29.4089
77.1012
82.3708
75.5299
66.5211
55.9178
49.1256
42.7007
37.7293
34.5295
35.6091
34.52
34.1422
34.848
31.6475
32.1605
31.8837
30.9103
32.6717
29.6582
73.9646
80.838
75.0759
67.9573
59.8801
50.5247
43.9612
38.5198
33.2485
33.3636
34.8084
33.781
33.4217
32.662
30.4696
31.9873
29.3352
30.5352
30.5988
86.4091
79.9627
77.0756
69.5595
58.0188
46.2196
40.958
38.8617
37.4526
35.7388
36.3618
36.1921
33.61
34.1214
32.0351
32.4974
31.7687
30.5422
30.9245
72.0008
75.807
70.5041
62.4391
55.5081
48.3196
41.6717
36.9774
32.0677
32.086
34.0593
32.992
32.4311
32.0857
29.8441
31.7656
28.9892
29.8779
29.877
88.28
78.5376
73.3398
70.1524
58.4025
46.8552
42.9453
41.103
38.1664
37.4439
38.1022
36.4841
35.2135
34.0166
33.1836
32.5214
30.3974
30.2147
28.8655
76.008
77.5532
69.7017
63.2894
55.127
48.4597
42.1969
36.5061
33.6611
34.7309
35.5133
34.3162
33.8879
30.7461
31.3727
30.696
28.6212
30.7296
27.9329
82.342
78.816
79.7227
69.3759
59.6107
52.8911
50.0122
44.6356
42.8519
41.3904
41.3719
39.4836
37.4904
34.9509
34.9677
32.5093
31.1579
30.6281
28.7642
79.9302
81.1343
77.2509
68.5431
59.1564
54.0599
48.0026
39.9014
39.164
40.1874
38.3184
39.0407
36.0162
33.1134
34.8709
30.8375
31.0155
29.9666
25.874
86.793
88.6893
77.1403
68.5961
59.4409
52.6055
45.6406
46.3393
46.6055
45.107
44.2254
42.4604
39.8697
40.2548
38.3466
34.8999
33.2541
30.731
27.8654
87.3443
90.466
84.9714
75.1307
66.2266
57.5468
51.4273
45.2291
44.4776
41.9858
43.4309
42.0819
39.1906
39.5352
35.7371
32.9379
33.1011
29.1317
27.022
93.8683
94.5224
89.6166
76.4847
65.7769
54.7815
45.1927
52.2379
47.3429
44.7223
44.3107
42.2772
40.627
42.005
39.9766
38.3057
35.4977
31.9643
27.2319
93.9992
98.5167
93.8077
83.4935
71.4471
60.4617
54.7844
48.7913
44.5862
43.1909
44.5434
43.0822
40.7191
41.6717
37.6955
37.7754
34.0272
29.9081
27.8774
91.6937
98.888
91.5117
77.7158
65.8703
59.7004
52.3731
51.3003
47.8645
46.6528
45.7295
42.0291
40.7655
39.1636
38.8836
38.0365
36.6993
32.9111
28.1062
95.1791
101.808
97.3772
87.2179
75.1933
64.2981
56.386
48.6692
47.7591
45.9079
44.0518
44.0565
41.2083
38.6568
39.9185
38.904
35.1475
32.7957
28.964
100.071
94.0227
93.0289
84.7755
71.3859
62.3905
54.024
52.8912
50.5373
47.5782
45.088
44.4419
41.3035
38.3957
39.994
37.1765
34.6283
31.8518
30.0163
93.679
103.479
94.5408
84.8785
73.7693
65.3927
58.3939
52.963
49.4235
47.9174
47.5079
44.0305
40.4896
39.8688
40.3771
35.4795
34.9739
34.8491
27.2059
104.95
102.69
98.5549
85.5055
76.3685
61.7172
54.4328
49.3595
47.887
47.861
46.0488
42.7827
41.1019
39.4832
38.4033
35.2792
31.4176
30.5298
31.1878
109.321
102.872
91.3047
80.3852
71.1237
64.4264
59.04
52.4256
45.6605
48.8394
47.7496
42.9336
42.4969
39.5589
38.0348
34.6934
33.8187
31.155
27.0202
101.711
106.827
100.918
84.2523
73.8347
53.417
49.7145
45.243
46.754
47.4758
46.9931
42.4501
39.989
39.1361
36.6901
32.1974
31.8559
29.04
29.2683
77.6601
84.1654
81.3726
74.0752
64.2662
56.6525
54.045
49.6297
47.7088
46.9829
45.0302
43.5577
44.1154
38.8115
36.394
35.0831
32.8325
28.8244
25.7296
84.0661
93.439
71.6179
72.3108
74.4059
54.0872
46.2312
46.56
43.5986
43.1856
42.4439
40.1769
40.6056
38.4252
35.3326
32.6342
33.1149
27.8155
27.3844
69.1625
77.9833
65.3759
62.5626
54.3928
50.7162
48.5038
48.5352
43.4112
42.1955
43.1022
43.2323
41.4288
37.408
35.9176
35.4546
33.0269
26.4477
26.0399
92.5041
91.7179
84.2846
73.7579
52.9586
48.9293
46.2498
43.7487
43.4228
40.995
39.8806
38.5392
40.0148
37.0892
34.5007
32.3387
33.1729
26.9689
26.5007
62.3614
66.7958
57.6068
54.771
45.9529
44.0703
41.2193
42.1123
40.8495
41.3909
42.0148
41.6571
39.9332
36.0872
36.2686
35.309
32.3275
26.7195
25.83
80.854
86.7768
79.3331
75.8673
48.3138
44.8976
43.2415
43.1004
42.4493
41.3426
40.6764
40.0483
40.2
39.1381
35.1388
33.4276
33.5248
27.9856
25.4816
66.0732
66.4233
57.8283
51.7531
43.7202
41.5513
38.7783
38.977
38.9597
39.9419
39.4267
40.2172
39.1569
35.6634
36.2938
36.1644
31.6944
27.6446
26.1289
69.7479
91.9374
65.4298
62.436
50.8672
47.31
44.6175
45.1964
41.3332
42.97
41.7137
40.1261
39.9744
37.613
37.1275
35.3749
33.5987
29.2488
26.3231
57.3121
65.8757
58.2827
52.4401
48.0976
41.012
40.4419
41.0321
37.6368
38.8221
39.7369
38.859
39.9182
34.418
33.7608
36.4279
31.2683
28.5198
27.4082
79.0886
79.9613
72.8476
60.3246
54.733
49.7189
49.0445
45.5519
44.1178
43.4422
41.6387
41.777
40.8997
39.4148
38.174
37.009
34.7638
31.3978
28.8279
61.3402
66.9339
65.2327
59.4958
46.9151
46.5964
44.0448
41.7102
40.6937
40.9565
38.7636
39.5777
40.2026
37.3635
37.1614
36.9979
33.5553
29.6664
27.5421
71.9284
82.2587
69.9954
69.4368
60.4435
54.8704
50.8039
49.618
47.8587
46.0896
45.6346
43.294
41.7344
41.3122
38.2538
39.6311
36.8559
33.2727
31.0167
66.8189
71.2669
68.8527
64.8179
57.1589
49.636
47.9895
43.5547
44.0536
44.3938
42.5944
42.0285
40.3205
38.6005
37.9988
38.8118
33.8622
31.2024
31.0122
76.0954
77.0926
79.4772
69.7948
61.169
57.414
55.302
53.3245
50.0029
49.1454
48.7863
45.9524
45.7417
43.2092
39.4424
41.6023
40.151
34.1496
32.8199
76.3353
80.8371
80.0771
73.9497
59.2092
57.0308
52.2025
49.9993
47.5525
47.6782
44.7712
44.32
45.482
40.4696
38.2121
40.1839
36.4289
32.2767
32.5122
81.7479
80.5544
83.2186
73.3324
70.1365
62.2526
60.9327
58.3647
53.1996
54.4571
52.6781
49.6868
49.0304
46.5366
42.0426
42.689
42.5753
38.9297
35.1752
75.338
86.6356
86.4219
78.1235
68.7933
62.9397
61.6219
56.1691
52.1452
52.0032
50.2439
49.5564
48.759
43.4109
40.5145
41.8262
39.3371
34.283
33.6125
89.7167
88.4393
90.0447
83.2073
79.0845
70.922
66.9808
64.5127
59.0011
60.5424
57.5374
52.3843
52.0969
50.5021
44.9231
43.695
45.7715
41.6285
37.3759
88.1147
93.7082
96.8073
88.7691
78.0728
71.6629
66.8532
62.4619
58.7897
59.0184
55.1552
52.1981
53.5846
47.5646
42.5499
43.516
41.7767
35.3829
34.5438
63.2991
89.8013
77.1922
98.3509
86.823
77.1284
74.281
71.7627
64.7509
65.4731
63.0115
57.781
57.3103
53.7378
47.5549
45.6814
47.0681
43.714
38.7846
92.2223
99.2675
100.909
102.18
88.6316
79.7922
76.7583
71.3117
65.8642
65.5598
62.1747
56.4566
57.9951
53.9045
45.5408
45.0354
44.4614
38.7137
37.4542
53.4278
53.4028
53.4535
53.5796
53.8485
54.3938
55.4121
57.1087
61.5285
51.5864
51.6454
51.7282
51.9157
52.3206
53.1887
55.0704
59.1591
67.5799
48.2852
48.2627
48.3152
48.4456
48.7253
49.3004
50.4098
52.4311
55.9714
52.6058
52.6593
52.741
52.9275
53.3327
54.2099
56.1403
60.4135
77.9561
50.7805
50.7513
50.8032
50.9342
51.2165
51.7988
52.9304
55.0156
61.5751
54.5793
54.625
54.7046
54.8897
55.2951
56.1775
58.1226
62.4272
79.4957
45.447
45.429
45.4859
45.6268
45.9325
46.5714
47.8474
50.3277
57.4496
60.6156
60.6417
60.7199
60.9061
61.3182
62.2263
64.2612
68.8602
88.9735
49.1909
49.178
49.233
49.3695
49.67
50.3081
51.6061
54.1957
62.5357
63.9595
63.9601
64.0343
64.218
64.6303
65.5518
67.6442
72.4209
93.0093
53.2384
53.2278
53.2781
53.4051
53.6895
54.303
55.5689
58.1315
69.7711
64.7007
64.6873
64.7568
64.934
65.3376
66.2517
68.3525
73.2033
94.4832
52.1382
52.1427
52.1887
52.3064
52.576
53.169
54.4067
56.8665
61.9443
63.4912
63.4488
63.5113
63.6803
64.0719
64.9718
67.0673