/*--------------------------------*- C++ -*----------------------------------*\
| =========                 |                                                 |
| \\      /  F ield         | foam-extend: Open Source CFD                    |
|  \\    /   O peration     | Version:     3.1                                |
|   \\  /    A nd           | Web:         http://www.extend-project.de       |
|    \\/     M anipulation  |                                                 |
\*---------------------------------------------------------------------------*/
FoamFile
{
    version     2.0;
    format      ascii;
    class       volVectorField;
    location    "0";
    object      DU;
}
// * * * * * * * * * * * * * * * * * * * * * * * * * * * * * * * * * * * * * //

dimensions      [0 1 0 0 0 0 0];

internalField   uniform (0 0 0);

boundaryField
{
    BOTTOM
    {
      
	//type		solidTractionFree ;
	type		slip;
	value		uniform (0 0 0);
    }
    
    WALL_OUTER
    {
      
	type		fixedValue;
	//value		uniform (0 0 0);
	value		nonuniform List<vector>
	
	2721
	(
( -3.259131e-08 0 -3.250021e-07) 
( -3.259131e-08 0 -3.250021e-07) 
( -3.259131e-08 0 -3.250021e-07) 
( -3.234991e-08 0 -3.249218e-07) 
( -3.259131e-08 0 -3.250021e-07) 
( -3.259131e-08 0 -3.250021e-07) 
( -3.259131e-08 0 -3.250021e-07) 
( -3.234991e-08 0 -3.249218e-07) 
( -3.350657e-08 0 -3.252967e-07) 
( -1.957404e-08 0 -3.413966e-07) 
( -1.957404e-08 0 -3.413966e-07) 
( -1.957404e-08 0 -3.413966e-07) 
( -1.957404e-08 0 -3.413966e-07) 
( -1.957404e-08 0 -3.413966e-07) 
( -1.957404e-08 0 -3.413966e-07) 
( -1.957404e-08 0 -3.413966e-07) 
( -1.957404e-08 0 -3.413966e-07) 
( -1.957404e-08 0 -3.413966e-07) 
( 1.645773e-09 0 -3.485434e-07) 
( 1.645773e-09 0 -3.485434e-07) 
( 1.645773e-09 0 -3.485434e-07) 
( 1.645773e-09 0 -3.485434e-07) 
( 1.645773e-09 0 -3.485434e-07) 
( 1.645773e-09 0 -3.485434e-07) 
( 1.645773e-09 0 -3.485434e-07) 
( 1.645773e-09 0 -3.485434e-07) 
( 1.645773e-09 0 -3.485434e-07) 
( 1.248630e-08 0 -3.470484e-07) 
( 1.248630e-08 0 -3.470484e-07) 
( 1.248630e-08 0 -3.470484e-07) 
( 1.248630e-08 0 -3.470484e-07) 
( 1.248630e-08 0 -3.470484e-07) 
( 1.248630e-08 0 -3.470484e-07) 
( 1.248630e-08 0 -3.470484e-07) 
( 1.248630e-08 0 -3.470484e-07) 
( 1.248630e-08 0 -3.470484e-07) 
( 5.557241e-08 0 -3.418549e-07) 
( 5.557241e-08 0 -3.418549e-07) 
( 5.557241e-08 0 -3.418549e-07) 
( 5.555655e-08 0 -3.418580e-07) 
( 5.555655e-08 0 -3.418580e-07) 
( 5.555655e-08 0 -3.418580e-07) 
( 5.557241e-08 0 -3.418549e-07) 
( 5.555655e-08 0 -3.418580e-07) 
( 5.562620e-08 0 -3.419164e-07) 
( 6.044895e-08 0 -3.442631e-07) 
( 6.044895e-08 0 -3.442631e-07) 
( 6.044895e-08 0 -3.442631e-07) 
( 6.044895e-08 0 -3.442631e-07) 
( 6.044895e-08 0 -3.442631e-07) 
( 6.044895e-08 0 -3.442631e-07) 
( 6.044895e-08 0 -3.442631e-07) 
( 6.044895e-08 0 -3.442631e-07) 
( 6.044895e-08 0 -3.442631e-07) 
( 7.438310e-08 0 -3.294738e-07) 
( 7.438310e-08 0 -3.294738e-07) 
( 7.438310e-08 0 -3.294738e-07) 
( 7.438310e-08 0 -3.294738e-07) 
( 7.438310e-08 0 -3.294738e-07) 
( 7.438310e-08 0 -3.294738e-07) 
( 7.438310e-08 0 -3.294738e-07) 
( 7.438310e-08 0 -3.294738e-07) 
( 7.438310e-08 0 -3.294738e-07) 
( 1.129901e-07 0 -3.090737e-07) 
( 1.129901e-07 0 -3.090737e-07) 
( 1.129901e-07 0 -3.090737e-07) 
( 1.129901e-07 0 -3.090737e-07) 
( 1.129901e-07 0 -3.090737e-07) 
( 1.129901e-07 0 -3.090737e-07) 
( 1.129901e-07 0 -3.090737e-07) 
( 1.122909e-07 0 -3.094839e-07) 
( 1.099084e-07 0 -3.107090e-07) 
( 1.036605e-07 0 -3.013672e-07) 
( 1.036605e-07 0 -3.013672e-07) 
( 1.036605e-07 0 -3.013672e-07) 
( 1.036605e-07 0 -3.013672e-07) 
( 1.036605e-07 0 -3.013672e-07) 
( 1.036605e-07 0 -3.013672e-07) 
( 1.036605e-07 0 -3.013672e-07) 
( 1.036605e-07 0 -3.013672e-07) 
( 1.036605e-07 0 -3.013672e-07) 
( 1.215287e-07 0 -2.867004e-07) 
( 1.215287e-07 0 -2.867004e-07) 
( 1.215287e-07 0 -2.867004e-07) 
( 1.215287e-07 0 -2.867004e-07) 
( 1.215287e-07 0 -2.867004e-07) 
( 1.215287e-07 0 -2.867004e-07) 
( 1.215287e-07 0 -2.867004e-07) 
( 1.215287e-07 0 -2.867004e-07) 
( 1.215287e-07 0 -2.867004e-07) 
( 1.446823e-07 0 -2.770941e-07) 
( 1.446823e-07 0 -2.770941e-07) 
( 1.446823e-07 0 -2.770941e-07) 
( 1.446823e-07 0 -2.770941e-07) 
( 1.446823e-07 0 -2.770941e-07) 
( 1.446823e-07 0 -2.770941e-07) 
( 1.446823e-07 0 -2.770941e-07) 
( 1.446823e-07 0 -2.770941e-07) 
( 1.446823e-07 0 -2.770941e-07) 
( 1.738438e-07 0 -2.762812e-07) 
( 1.738438e-07 0 -2.762812e-07) 
( 1.738438e-07 0 -2.762812e-07) 
( 1.738438e-07 0 -2.762812e-07) 
( 1.738438e-07 0 -2.762812e-07) 
( 1.738438e-07 0 -2.762812e-07) 
( 1.738438e-07 0 -2.762812e-07) 
( 1.738438e-07 0 -2.762812e-07) 
( 1.738438e-07 0 -2.762812e-07) 
( 2.625324e-07 0 -2.823796e-07) 
( 2.625115e-07 0 -2.823373e-07) 
( 2.625115e-07 0 -2.823373e-07) 
( 2.625115e-07 0 -2.823373e-07) 
( 2.625115e-07 0 -2.823373e-07) 
( 2.625115e-07 0 -2.823373e-07) 
( 2.625115e-07 0 -2.823373e-07) 
( 2.625115e-07 0 -2.823373e-07) 
( 2.613477e-07 0 -2.825751e-07) 
( 3.488880e-07 0 -3.199086e-07) 
( 3.488880e-07 0 -3.199086e-07) 
( 3.488880e-07 0 -3.199086e-07) 
( 3.488880e-07 0 -3.199086e-07) 
( 3.488880e-07 0 -3.199086e-07) 
( 3.488880e-07 0 -3.199086e-07) 
( 3.488880e-07 0 -3.199086e-07) 
( 3.488880e-07 0 -3.199086e-07) 
( 3.488880e-07 0 -3.199086e-07) 
( 5.102248e-07 0 -3.502444e-07) 
( 5.102248e-07 0 -3.502444e-07) 
( 5.102248e-07 0 -3.502444e-07) 
( 5.102248e-07 0 -3.502444e-07) 
( 5.102248e-07 0 -3.502444e-07) 
( 5.102248e-07 0 -3.502444e-07) 
( 5.102248e-07 0 -3.502444e-07) 
( 5.102248e-07 0 -3.502444e-07) 
( 5.102248e-07 0 -3.502444e-07) 
( 6.557476e-07 0 -3.483502e-07) 
( 6.557476e-07 0 -3.483502e-07) 
( 6.557476e-07 0 -3.483502e-07) 
( 6.557476e-07 0 -3.483502e-07) 
( 6.557476e-07 0 -3.483502e-07) 
( 6.557476e-07 0 -3.483502e-07) 
( 6.560551e-07 0 -3.481681e-07) 
( 6.561555e-07 0 -3.480921e-07) 
( 6.573793e-07 0 -3.473179e-07) 
( 7.674491e-07 0 -2.682818e-07) 
( 7.674491e-07 0 -2.682818e-07) 
( 7.674491e-07 0 -2.682818e-07) 
( 7.674491e-07 0 -2.682818e-07) 
( 7.674491e-07 0 -2.682818e-07) 
( 7.670907e-07 0 -2.690629e-07) 
( 7.670907e-07 0 -2.690629e-07) 
( 7.670907e-07 0 -2.690629e-07) 
( 7.692069e-07 0 -2.658808e-07) 
( 8.020038e-07 0 -2.184174e-07) 
( 8.020038e-07 0 -2.184174e-07) 
( 8.020038e-07 0 -2.184174e-07) 
( 8.020038e-07 0 -2.184174e-07) 
( 8.020038e-07 0 -2.184174e-07) 
( 8.020038e-07 0 -2.184174e-07) 
( 8.020038e-07 0 -2.184174e-07) 
( 8.020038e-07 0 -2.184174e-07) 
( 8.020038e-07 0 -2.184174e-07) 
( 7.709051e-07 0 -2.900351e-08) 
( 7.709051e-07 0 -2.900351e-08) 
( 7.709051e-07 0 -2.900351e-08) 
( 7.709051e-07 0 -2.900351e-08) 
( 7.709051e-07 0 -2.900351e-08) 
( 7.709051e-07 0 -2.900351e-08) 
( 7.708430e-07 0 -2.879737e-08) 
( 7.708395e-07 0 -2.877142e-08) 
( 7.704672e-07 0 -2.753461e-08) 
( -5.327488e-08 0 -3.100932e-07) 
( -5.327488e-08 0 -3.100932e-07) 
( -5.327488e-08 0 -3.100932e-07) 
( -5.369162e-08 0 -3.098652e-07) 
( -5.369162e-08 0 -3.098652e-07) 
( -5.378176e-08 0 -3.098174e-07) 
( -5.369162e-08 0 -3.098652e-07) 
( -5.419849e-08 0 -3.095894e-07) 
( -4.994701e-08 0 -3.117447e-07) 
( -5.707753e-08 0 -2.972935e-07) 
( -5.707753e-08 0 -2.972935e-07) 
( -5.707753e-08 0 -2.972935e-07) 
( -5.707753e-08 0 -2.972935e-07) 
( -5.717901e-08 0 -2.970412e-07) 
( -5.717901e-08 0 -2.970412e-07) 
( -5.717901e-08 0 -2.970412e-07) 
( -5.695855e-08 0 -2.976111e-07) 
( -5.645004e-08 0 -3.004439e-07) 
( -5.479948e-08 0 -2.866634e-07) 
( -5.479948e-08 0 -2.866634e-07) 
( -5.479948e-08 0 -2.866634e-07) 
( -5.479948e-08 0 -2.866634e-07) 
( -5.512122e-08 0 -2.866232e-07) 
( -5.512122e-08 0 -2.866232e-07) 
( -5.512122e-08 0 -2.866232e-07) 
( -5.410408e-08 0 -2.867397e-07) 
( -5.903406e-08 0 -2.861443e-07) 
( -9.517810e-08 0 -2.704879e-07) 
( -9.517810e-08 0 -2.704879e-07) 
( -9.517810e-08 0 -2.704879e-07) 
( -9.485685e-08 0 -2.706257e-07) 
( -9.485685e-08 0 -2.706257e-07) 
( -9.485685e-08 0 -2.706257e-07) 
( -9.437316e-08 0 -2.708339e-07) 
( -9.485685e-08 0 -2.706257e-07) 
( -8.614673e-08 0 -2.743760e-07) 
( -1.147210e-07 0 -2.598102e-07) 
( -1.147210e-07 0 -2.598102e-07) 
( -1.147210e-07 0 -2.598102e-07) 
( -1.147210e-07 0 -2.598102e-07) 
( -1.147210e-07 0 -2.598102e-07) 
( -1.147210e-07 0 -2.598102e-07) 
( -1.147210e-07 0 -2.598102e-07) 
( -1.147210e-07 0 -2.598102e-07) 
( -1.146029e-07 0 -2.595730e-07) 
( -1.036376e-07 0 -2.576370e-07) 
( -1.036376e-07 0 -2.576370e-07) 
( -1.036376e-07 0 -2.576370e-07) 
( -1.035955e-07 0 -2.576939e-07) 
( -1.035955e-07 0 -2.576939e-07) 
( -1.035955e-07 0 -2.576939e-07) 
( -1.035955e-07 0 -2.576939e-07) 
( -1.037249e-07 0 -2.575525e-07) 
( -1.016152e-07 0 -2.599013e-07) 
( -1.530703e-07 0 -2.321321e-07) 
( -1.530703e-07 0 -2.321321e-07) 
( -1.530703e-07 0 -2.321321e-07) 
( -1.530703e-07 0 -2.321321e-07) 
( -1.530703e-07 0 -2.321321e-07) 
( -1.530703e-07 0 -2.321321e-07) 
( -1.530703e-07 0 -2.321321e-07) 
( -1.530683e-07 0 -2.321184e-07) 
( -1.532295e-07 0 -2.318027e-07) 
( -1.296168e-07 0 -2.498995e-07) 
( -1.296168e-07 0 -2.498995e-07) 
( -1.296168e-07 0 -2.498995e-07) 
( -1.296168e-07 0 -2.498995e-07) 
( -1.296168e-07 0 -2.498995e-07) 
( -1.296168e-07 0 -2.498995e-07) 
( -1.296168e-07 0 -2.498995e-07) 
( -1.297164e-07 0 -2.498197e-07) 
( -1.263098e-07 0 -2.518271e-07) 
( -1.355868e-07 0 -2.586510e-07) 
( -1.355868e-07 0 -2.586510e-07) 
( -1.355868e-07 0 -2.586510e-07) 
( -1.355868e-07 0 -2.586510e-07) 
( -1.355868e-07 0 -2.586510e-07) 
( -1.355868e-07 0 -2.586510e-07) 
( -1.355868e-07 0 -2.586510e-07) 
( -1.365284e-07 0 -2.581932e-07) 
( -1.355974e-07 0 -2.591788e-07) 
( -1.749662e-07 0 -2.670565e-07) 
( -1.751318e-07 0 -2.669183e-07) 
( -1.751318e-07 0 -2.669183e-07) 
( -1.751318e-07 0 -2.669183e-07) 
( -1.751318e-07 0 -2.669183e-07) 
( -1.751318e-07 0 -2.669183e-07) 
( -1.751318e-07 0 -2.669183e-07) 
( -1.755103e-07 0 -2.665551e-07) 
( -1.734283e-07 0 -2.683868e-07) 
( -1.930294e-07 0 -2.881866e-07) 
( -1.930294e-07 0 -2.881866e-07) 
( -1.930294e-07 0 -2.881866e-07) 
( -1.930294e-07 0 -2.881866e-07) 
( -1.930294e-07 0 -2.881866e-07) 
( -1.930294e-07 0 -2.881866e-07) 
( -1.930294e-07 0 -2.881866e-07) 
( -1.917648e-07 0 -2.885997e-07) 
( -1.881814e-07 0 -2.897185e-07) 
( -2.556125e-07 0 -3.056732e-07) 
( -2.556125e-07 0 -3.056732e-07) 
( -2.556125e-07 0 -3.056732e-07) 
( -2.556125e-07 0 -3.056732e-07) 
( -2.556125e-07 0 -3.056732e-07) 
( -2.556125e-07 0 -3.056732e-07) 
( -2.556125e-07 0 -3.056732e-07) 
( -2.556125e-07 0 -3.056732e-07) 
( -2.556125e-07 0 -3.056732e-07) 
( -3.262012e-07 0 -2.958150e-07) 
( -3.262012e-07 0 -2.958150e-07) 
( -3.262012e-07 0 -2.958150e-07) 
( -3.262012e-07 0 -2.958150e-07) 
( -3.262012e-07 0 -2.958150e-07) 
( -3.262012e-07 0 -2.958150e-07) 
( -3.262012e-07 0 -2.958150e-07) 
( -3.262012e-07 0 -2.958150e-07) 
( -3.262012e-07 0 -2.958150e-07) 
( -3.684886e-07 0 -2.607177e-07) 
( -3.684886e-07 0 -2.607177e-07) 
( -3.684886e-07 0 -2.607177e-07) 
( -3.684886e-07 0 -2.607177e-07) 
( -3.684886e-07 0 -2.607177e-07) 
( -3.684886e-07 0 -2.607177e-07) 
( -3.684886e-07 0 -2.607177e-07) 
( -3.684886e-07 0 -2.607177e-07) 
( -3.673366e-07 0 -2.621582e-07) 
( -3.930766e-07 0 -2.066610e-07) 
( -3.930766e-07 0 -2.066610e-07) 
( -3.930766e-07 0 -2.066610e-07) 
( -3.930766e-07 0 -2.066610e-07) 
( -3.930766e-07 0 -2.066610e-07) 
( -3.930766e-07 0 -2.066610e-07) 
( -3.930766e-07 0 -2.066610e-07) 
( -3.930766e-07 0 -2.066610e-07) 
( -3.921290e-07 0 -2.082079e-07) 
( -4.150748e-07 0 -1.337290e-07) 
( -4.150748e-07 0 -1.337290e-07) 
( -4.150748e-07 0 -1.337290e-07) 
( -4.150748e-07 0 -1.337290e-07) 
( -4.150748e-07 0 -1.337290e-07) 
( -4.150748e-07 0 -1.337290e-07) 
( -4.150748e-07 0 -1.337290e-07) 
( -4.150748e-07 0 -1.337290e-07) 
( -4.152364e-07 0 -1.326081e-07) 
( -4.277007e-07 0 -1.133684e-07) 
( -4.277007e-07 0 -1.133684e-07) 
( -4.277007e-07 0 -1.133684e-07) 
( -4.277007e-07 0 -1.133684e-07) 
( -4.277007e-07 0 -1.133684e-07) 
( -4.277007e-07 0 -1.133684e-07) 
( -4.277007e-07 0 -1.133684e-07) 
( -4.277007e-07 0 -1.133684e-07) 
( -4.277007e-07 0 -1.133684e-07) 
( -4.325291e-07 0 -6.688044e-08) 
( -4.325415e-07 0 -6.691418e-08) 
( -4.325415e-07 0 -6.691418e-08) 
( -4.325415e-07 0 -6.691418e-08) 
( -4.325415e-07 0 -6.691418e-08) 
( -4.325415e-07 0 -6.691418e-08) 
( -4.325415e-07 0 -6.691418e-08) 
( -4.325415e-07 0 -6.691418e-08) 
( -4.329001e-07 0 -6.653856e-08) 
( -4.348566e-07 0 -6.154316e-09) 
( -4.348566e-07 0 -6.154316e-09) 
( -4.348566e-07 0 -6.154316e-09) 
( -4.348566e-07 0 -6.154316e-09) 
( -4.348566e-07 0 -6.154316e-09) 
( -4.348566e-07 0 -6.154316e-09) 
( -4.348566e-07 0 -6.154316e-09) 
( -4.348566e-07 0 -6.154316e-09) 
( -4.348566e-07 0 -6.154316e-09) 
( -4.327422e-07 0 1.989538e-08) 
( -4.327422e-07 0 1.989538e-08) 
( -4.327422e-07 0 1.989538e-08) 
( -4.327422e-07 0 1.989538e-08) 
( -4.327422e-07 0 1.989538e-08) 
( -4.327422e-07 0 1.989538e-08) 
( -4.327422e-07 0 1.989538e-08) 
( -4.327422e-07 0 1.989538e-08) 
( -4.327422e-07 0 1.989538e-08) 
( -4.349497e-07 0 4.246779e-08) 
( -4.349497e-07 0 4.246779e-08) 
( -4.349497e-07 0 4.246779e-08) 
( -4.349497e-07 0 4.246779e-08) 
( -4.349497e-07 0 4.246779e-08) 
( -4.349497e-07 0 4.246779e-08) 
( -4.349497e-07 0 4.246779e-08) 
( -4.349497e-07 0 4.246779e-08) 
( -4.417984e-07 0 5.600493e-08) 
( -4.389284e-07 0 8.209689e-08) 
( -4.389284e-07 0 8.209689e-08) 
( -4.389284e-07 0 8.209689e-08) 
( -4.389284e-07 0 8.209689e-08) 
( -4.389284e-07 0 8.209689e-08) 
( -4.389284e-07 0 8.209689e-08) 
( -4.389284e-07 0 8.209689e-08) 
( -4.389284e-07 0 8.209689e-08) 
( -4.382483e-07 0 7.472727e-08) 
( -4.263460e-07 0 8.831502e-08) 
( -4.263460e-07 0 8.831502e-08) 
( -4.263460e-07 0 8.831502e-08) 
( -4.263460e-07 0 8.831502e-08) 
( -4.263460e-07 0 8.831502e-08) 
( -4.263460e-07 0 8.831502e-08) 
( -4.263460e-07 0 8.831502e-08) 
( -4.263460e-07 0 8.831502e-08) 
( -4.070143e-07 0 1.017765e-07) 
( -3.804918e-07 0 1.371456e-07) 
( -3.804330e-07 0 1.372257e-07) 
( -3.804330e-07 0 1.372257e-07) 
( -3.804330e-07 0 1.372257e-07) 
( -3.804330e-07 0 1.372257e-07) 
( -3.804330e-07 0 1.372257e-07) 
( -3.804330e-07 0 1.372257e-07) 
( -3.804330e-07 0 1.372257e-07) 
( -3.699152e-07 0 1.432273e-07) 
( -3.458692e-07 0 1.675188e-07) 
( -3.458692e-07 0 1.675188e-07) 
( -3.458692e-07 0 1.675188e-07) 
( -3.458692e-07 0 1.675188e-07) 
( -3.458692e-07 0 1.675188e-07) 
( -3.458692e-07 0 1.675188e-07) 
( -3.458692e-07 0 1.675188e-07) 
( -3.458692e-07 0 1.675188e-07) 
( -3.196782e-07 0 1.915700e-07) 
( -2.881001e-07 0 2.011660e-07) 
( -2.881001e-07 0 2.011660e-07) 
( -2.881001e-07 0 2.011660e-07) 
( -2.881083e-07 0 2.011738e-07) 
( -2.881083e-07 0 2.011738e-07) 
( -2.881083e-07 0 2.011738e-07) 
( -2.881083e-07 0 2.011738e-07) 
( -2.881083e-07 0 2.011738e-07) 
( -2.467023e-07 0 2.044581e-07) 
( -2.055783e-07 0 2.018992e-07) 
( -2.055783e-07 0 2.018992e-07) 
( -2.055783e-07 0 2.018992e-07) 
( -2.055783e-07 0 2.018992e-07) 
( -2.055783e-07 0 2.018992e-07) 
( -2.055783e-07 0 2.018992e-07) 
( -2.055783e-07 0 2.018992e-07) 
( -2.057719e-07 0 2.017484e-07) 
( -1.648184e-07 0 2.114112e-07) 
( -1.323609e-07 0 2.158650e-07) 
( -1.323609e-07 0 2.158650e-07) 
( -1.323609e-07 0 2.158650e-07) 
( -1.323609e-07 0 2.158650e-07) 
( -1.323609e-07 0 2.158650e-07) 
( -1.323609e-07 0 2.158650e-07) 
( -1.322726e-07 0 2.158856e-07) 
( -1.324502e-07 0 2.158312e-07) 
( -1.260689e-07 0 2.243841e-07) 
( -1.062209e-07 0 2.313147e-07) 
( -1.062762e-07 0 2.313069e-07) 
( -1.062762e-07 0 2.313069e-07) 
( -1.062762e-07 0 2.313069e-07) 
( -1.062762e-07 0 2.313069e-07) 
( -1.062762e-07 0 2.313069e-07) 
( -1.062209e-07 0 2.313147e-07) 
( -1.059441e-07 0 2.313539e-07) 
( -1.142586e-07 0 2.372641e-07) 
( -1.037375e-07 0 2.508787e-07) 
( -1.037375e-07 0 2.508787e-07) 
( -1.037375e-07 0 2.508787e-07) 
( -1.037375e-07 0 2.508787e-07) 
( -1.037375e-07 0 2.508787e-07) 
( -1.037375e-07 0 2.508787e-07) 
( -1.037375e-07 0 2.508787e-07) 
( -1.038692e-07 0 2.510549e-07) 
( -1.043759e-07 0 2.689675e-07) 
( -1.112522e-07 0 2.747707e-07) 
( -1.112522e-07 0 2.747707e-07) 
( -1.112522e-07 0 2.747707e-07) 
( -1.112522e-07 0 2.747707e-07) 
( -1.112522e-07 0 2.747707e-07) 
( -1.112522e-07 0 2.747707e-07) 
( -1.112697e-07 0 2.746971e-07) 
( -1.111793e-07 0 2.745466e-07) 
( -9.474573e-08 0 3.060413e-07) 
( -1.068803e-07 0 3.142911e-07) 
( -1.068803e-07 0 3.142911e-07) 
( -1.076431e-07 0 3.139005e-07) 
( -1.076431e-07 0 3.139005e-07) 
( -1.076431e-07 0 3.139005e-07) 
( -1.076431e-07 0 3.139005e-07) 
( -1.076431e-07 0 3.139005e-07) 
( -1.146009e-07 0 3.104499e-07) 
( -1.315445e-07 0 3.194958e-07) 
( -1.217469e-07 0 3.423374e-07) 
( -1.217469e-07 0 3.423374e-07) 
( -1.217469e-07 0 3.423374e-07) 
( -1.217469e-07 0 3.423374e-07) 
( -1.217469e-07 0 3.423374e-07) 
( -1.217469e-07 0 3.423374e-07) 
( -1.217469e-07 0 3.423374e-07) 
( -1.209447e-07 0 3.429230e-07) 
( -1.510898e-07 0 3.385569e-07) 
( -1.431158e-07 0 3.608661e-07) 
( -1.431158e-07 0 3.608661e-07) 
( -1.431158e-07 0 3.608661e-07) 
( -1.431158e-07 0 3.608661e-07) 
( -1.183048e-07 0 3.827398e-07) 
( -1.183048e-07 0 3.827398e-07) 
( -1.199297e-07 0 3.819178e-07) 
( -1.452073e-07 0 3.597750e-07) 
( -1.291407e-07 0 3.879602e-07) 
( -1.478539e-07 0 3.928390e-07) 
( -1.478539e-07 0 3.928390e-07) 
( -1.478352e-07 0 3.929477e-07) 
( -1.478352e-07 0 3.929477e-07) 
( -1.481468e-07 0 3.923293e-07) 
( -1.482387e-07 0 3.920932e-07) 
( -1.482387e-07 0 3.920932e-07) 
( -1.596991e-07 0 3.933579e-07) 
( -1.571738e-07 0 3.988528e-07) 
( -1.458088e-07 0 4.262241e-07) 
( -1.458088e-07 0 4.262241e-07) 
( -1.446124e-07 0 4.269560e-07) 
( -1.446124e-07 0 4.269560e-07) 
( -1.450455e-07 0 4.266728e-07) 
( -1.450455e-07 0 4.266728e-07) 
( -1.446124e-07 0 4.269560e-07) 
( -1.537537e-07 0 4.194568e-07) 
( -1.624945e-07 0 4.379279e-07) 
( -1.621659e-07 0 4.416521e-07) 
( -1.621659e-07 0 4.416521e-07) 
( -1.621659e-07 0 4.416521e-07) 
( -1.621659e-07 0 4.416521e-07) 
( -1.637174e-07 0 4.405917e-07) 
( -1.625132e-07 0 4.413802e-07) 
( -1.625132e-07 0 4.413802e-07) 
( -1.621659e-07 0 4.416521e-07) 
( -1.375085e-07 0 4.543785e-07) 
( -1.302207e-07 0 4.606818e-07) 
( -1.302207e-07 0 4.606818e-07) 
( -1.302207e-07 0 4.606818e-07) 
( -1.302207e-07 0 4.606818e-07) 
( -1.304463e-07 0 4.605663e-07) 
( -1.304463e-07 0 4.605663e-07) 
( -1.304463e-07 0 4.605663e-07) 
( -1.301834e-07 0 4.607055e-07) 
( -1.015048e-07 0 4.667967e-07) 
( 7.619468e-07 0 3.239724e-08) 
( 7.619468e-07 0 3.239724e-08) 
( 7.619468e-07 0 3.239724e-08) 
( 7.619468e-07 0 3.239724e-08) 
( 7.619468e-07 0 3.239724e-08) 
( 7.619468e-07 0 3.239724e-08) 
( 7.619468e-07 0 3.239724e-08) 
( 7.619468e-07 0 3.239724e-08) 
( 7.619468e-07 0 3.239724e-08) 
( 7.786967e-07 0 1.303526e-07) 
( 7.786967e-07 0 1.303526e-07) 
( 7.786967e-07 0 1.303526e-07) 
( 7.786967e-07 0 1.303526e-07) 
( 7.786967e-07 0 1.303526e-07) 
( 7.786967e-07 0 1.303526e-07) 
( 7.785890e-07 0 1.312178e-07) 
( 7.785890e-07 0 1.312178e-07) 
( 7.829935e-07 0 1.376138e-07) 
( 8.246560e-07 0 1.711230e-07) 
( 8.246560e-07 0 1.711230e-07) 
( 8.246560e-07 0 1.711230e-07) 
( 8.246560e-07 0 1.711230e-07) 
( 8.246560e-07 0 1.711230e-07) 
( 8.246560e-07 0 1.711230e-07) 
( 8.246560e-07 0 1.711230e-07) 
( 8.246560e-07 0 1.711230e-07) 
( 8.031676e-07 0 2.026425e-07) 
( 8.064517e-07 0 3.478767e-07) 
( 8.064517e-07 0 3.478767e-07) 
( 8.064517e-07 0 3.478767e-07) 
( 8.064517e-07 0 3.478767e-07) 
( 8.064517e-07 0 3.478767e-07) 
( 8.064517e-07 0 3.478767e-07) 
( 8.064517e-07 0 3.478767e-07) 
( 8.065043e-07 0 3.484900e-07) 
( 7.747264e-07 0 3.233427e-07) 
( 7.084030e-07 0 3.752220e-07) 
( 7.084030e-07 0 3.752220e-07) 
( 7.084030e-07 0 3.752220e-07) 
( 7.084030e-07 0 3.752220e-07) 
( 7.084030e-07 0 3.752220e-07) 
( 7.084030e-07 0 3.752220e-07) 
( 7.084030e-07 0 3.752220e-07) 
( 7.084030e-07 0 3.752220e-07) 
( 6.721411e-07 0 3.751345e-07) 
( 5.346158e-07 0 3.874123e-07) 
( 5.346158e-07 0 3.874123e-07) 
( 5.346158e-07 0 3.874123e-07) 
( 5.346158e-07 0 3.874123e-07) 
( 5.346158e-07 0 3.874123e-07) 
( 5.346158e-07 0 3.874123e-07) 
( 5.346158e-07 0 3.874123e-07) 
( 5.346158e-07 0 3.874123e-07) 
( 5.315238e-07 0 3.805433e-07) 
( 3.881270e-07 0 3.485413e-07) 
( 3.881270e-07 0 3.485413e-07) 
( 3.881270e-07 0 3.485413e-07) 
( 3.881270e-07 0 3.485413e-07) 
( 3.881270e-07 0 3.485413e-07) 
( 3.881270e-07 0 3.485413e-07) 
( 3.881270e-07 0 3.485413e-07) 
( 3.869417e-07 0 3.490254e-07) 
( 3.950131e-07 0 3.523168e-07) 
( 2.695918e-07 0 3.296510e-07) 
( 2.695918e-07 0 3.296510e-07) 
( 2.695918e-07 0 3.296510e-07) 
( 2.695918e-07 0 3.296510e-07) 
( 2.695918e-07 0 3.296510e-07) 
( 2.695918e-07 0 3.296510e-07) 
( 2.695918e-07 0 3.296510e-07) 
( 2.695294e-07 0 3.296063e-07) 
( 2.801166e-07 0 3.322745e-07) 
( 2.208706e-07 0 2.959344e-07) 
( 2.208706e-07 0 2.959344e-07) 
( 2.208706e-07 0 2.959344e-07) 
( 2.208706e-07 0 2.959344e-07) 
( 2.208706e-07 0 2.959344e-07) 
( 2.208706e-07 0 2.959344e-07) 
( 2.208706e-07 0 2.959344e-07) 
( 2.208706e-07 0 2.959344e-07) 
( 2.217579e-07 0 3.078514e-07) 
( 1.597681e-07 0 3.005624e-07) 
( 1.597681e-07 0 3.005624e-07) 
( 1.597681e-07 0 3.005624e-07) 
( 1.597681e-07 0 3.005624e-07) 
( 1.597681e-07 0 3.005624e-07) 
( 1.597681e-07 0 3.005624e-07) 
( 1.597681e-07 0 3.005624e-07) 
( 1.597681e-07 0 3.005624e-07) 
( 1.691201e-07 0 3.012121e-07) 
( 1.370107e-07 0 2.973670e-07) 
( 1.370107e-07 0 2.973670e-07) 
( 1.370107e-07 0 2.973670e-07) 
( 1.370107e-07 0 2.973670e-07) 
( 1.370107e-07 0 2.973670e-07) 
( 1.370107e-07 0 2.973670e-07) 
( 1.370107e-07 0 2.973670e-07) 
( 1.370107e-07 0 2.973670e-07) 
( 1.306247e-07 0 3.016753e-07) 
( 9.920237e-08 0 3.106103e-07) 
( 9.920237e-08 0 3.106103e-07) 
( 9.920237e-08 0 3.106103e-07) 
( 9.920237e-08 0 3.106103e-07) 
( 9.920237e-08 0 3.106103e-07) 
( 9.905846e-08 0 3.106952e-07) 
( 9.905846e-08 0 3.106952e-07) 
( 9.877063e-08 0 3.108650e-07) 
( 9.900881e-08 0 3.104978e-07) 
( 9.090838e-08 0 3.197100e-07) 
( 9.090838e-08 0 3.197100e-07) 
( 9.090838e-08 0 3.197100e-07) 
( 9.090838e-08 0 3.197100e-07) 
( 9.090838e-08 0 3.197100e-07) 
( 9.080170e-08 0 3.196900e-07) 
( 9.080170e-08 0 3.196900e-07) 
( 9.080170e-08 0 3.196900e-07) 
( 9.011987e-08 0 3.236119e-07) 
( 6.952782e-08 0 3.504114e-07) 
( 6.952782e-08 0 3.504114e-07) 
( 6.952782e-08 0 3.504114e-07) 
( 6.952782e-08 0 3.504114e-07) 
( 6.952782e-08 0 3.504114e-07) 
( 6.952782e-08 0 3.504114e-07) 
( 6.952782e-08 0 3.504114e-07) 
( 6.952782e-08 0 3.504114e-07) 
( 6.922386e-08 0 3.482516e-07) 
( 8.032075e-08 0 3.707532e-07) 
( 8.032075e-08 0 3.707532e-07) 
( 8.032075e-08 0 3.707532e-07) 
( 8.032075e-08 0 3.707532e-07) 
( 8.032075e-08 0 3.707532e-07) 
( 8.032075e-08 0 3.707532e-07) 
( 8.032075e-08 0 3.707532e-07) 
( 8.032075e-08 0 3.707532e-07) 
( 7.493599e-08 0 3.738191e-07) 
( 2.309862e-08 0 4.041379e-07) 
( 2.309862e-08 0 4.041379e-07) 
( 2.309862e-08 0 4.041379e-07) 
( 2.302947e-08 0 4.041076e-07) 
( 2.304528e-08 0 4.040884e-07) 
( 2.302947e-08 0 4.041076e-07) 
( 2.302947e-08 0 4.041076e-07) 
( 2.301367e-08 0 4.041268e-07) 
( 2.712067e-08 0 4.052064e-07) 
( 6.296093e-09 0 4.323926e-07) 
( 6.296093e-09 0 4.323926e-07) 
( 6.296093e-09 0 4.323926e-07) 
( 6.296093e-09 0 4.323926e-07) 
( 6.296093e-09 0 4.323926e-07) 
( 6.296093e-09 0 4.323926e-07) 
( 6.296093e-09 0 4.323926e-07) 
( 6.296093e-09 0 4.323926e-07) 
( 6.359535e-09 0 4.301564e-07) 
( -1.487931e-08 0 4.475317e-07) 
( -1.488898e-08 0 4.475263e-07) 
( -1.488898e-08 0 4.475263e-07) 
( -1.488898e-08 0 4.475263e-07) 
( -1.488898e-08 0 4.475263e-07) 
( -1.487931e-08 0 4.475317e-07) 
( -1.462110e-08 0 4.465606e-07) 
( -1.462110e-08 0 4.465606e-07) 
( -2.363509e-08 0 4.460943e-07) 
( -1.188655e-07 0 4.639163e-07) 
( -1.188655e-07 0 4.639163e-07) 
( -1.188655e-07 0 4.639163e-07) 
( -1.188655e-07 0 4.639163e-07) 
( -1.188655e-07 0 4.639163e-07) 
( -1.188655e-07 0 4.639163e-07) 
( -1.188655e-07 0 4.639163e-07) 
( -1.188655e-07 0 4.639163e-07) 
( -1.141335e-07 0 4.601949e-07) 
( 1.446823e-07 0 -2.770941e-07) 
( 1.801310e-07 0 -2.650320e-07) 
( 1.801310e-07 0 -2.650320e-07) 
( 1.446823e-07 0 -2.770941e-07) 
( 1.801310e-07 0 -2.650320e-07) 
( 1.801310e-07 0 -2.650320e-07) 
( 1.446823e-07 0 -2.770941e-07) 
( 1.801310e-07 0 -2.650320e-07) 
( 1.801310e-07 0 -2.650320e-07) 
( 1.446823e-07 0 -2.770941e-07) 
( 1.801310e-07 0 -2.650320e-07) 
( 1.801310e-07 0 -2.650320e-07) 
( 1.446823e-07 0 -2.770941e-07) 
( 1.801310e-07 0 -2.650320e-07) 
( 1.801310e-07 0 -2.650320e-07) 
( 1.446823e-07 0 -2.770941e-07) 
( 1.801310e-07 0 -2.650320e-07) 
( 1.801310e-07 0 -2.650320e-07) 
( 1.446823e-07 0 -2.770941e-07) 
( 1.801310e-07 0 -2.650320e-07) 
( 1.801310e-07 0 -2.650320e-07) 
( 1.446823e-07 0 -2.770941e-07) 
( 1.801310e-07 0 -2.650320e-07) 
( 1.801310e-07 0 -2.650320e-07) 
( 1.510648e-07 0 -2.802116e-07) 
( 1.669367e-07 0 -2.774641e-07) 
( 1.801310e-07 0 -2.650320e-07) 
( 1.738438e-07 0 -2.762812e-07) 
( 2.193084e-07 0 -2.736079e-07) 
( 2.193084e-07 0 -2.736079e-07) 
( 1.738438e-07 0 -2.762812e-07) 
( 2.193084e-07 0 -2.736079e-07) 
( 2.193084e-07 0 -2.736079e-07) 
( 1.738438e-07 0 -2.762812e-07) 
( 2.193084e-07 0 -2.736079e-07) 
( 2.193084e-07 0 -2.736079e-07) 
( 1.738438e-07 0 -2.762812e-07) 
( 2.193084e-07 0 -2.736079e-07) 
( 2.193084e-07 0 -2.736079e-07) 
( 1.738438e-07 0 -2.762812e-07) 
( 2.193084e-07 0 -2.736079e-07) 
( 2.193084e-07 0 -2.736079e-07) 
( 1.738438e-07 0 -2.762812e-07) 
( 2.193084e-07 0 -2.736079e-07) 
( 2.193084e-07 0 -2.736079e-07) 
( 1.738438e-07 0 -2.762812e-07) 
( 2.192959e-07 0 -2.735532e-07) 
( 2.192959e-07 0 -2.735532e-07) 
( 1.738438e-07 0 -2.762812e-07) 
( 2.192959e-07 0 -2.735532e-07) 
( 2.192959e-07 0 -2.735532e-07) 
( 1.905637e-07 0 -2.757656e-07) 
( 2.258783e-07 0 -2.786688e-07) 
( 2.196834e-07 0 -2.730694e-07) 
( 2.625115e-07 0 -2.823373e-07) 
( 3.162594e-07 0 -2.926176e-07) 
( 3.162594e-07 0 -2.926176e-07) 
( 2.625115e-07 0 -2.823373e-07) 
( 3.162594e-07 0 -2.926176e-07) 
( 3.162594e-07 0 -2.926176e-07) 
( 2.625115e-07 0 -2.823373e-07) 
( 3.162594e-07 0 -2.926176e-07) 
( 3.162594e-07 0 -2.926176e-07) 
( 2.625115e-07 0 -2.823373e-07) 
( 3.162594e-07 0 -2.926176e-07) 
( 3.162594e-07 0 -2.926176e-07) 
( 2.625115e-07 0 -2.823373e-07) 
( 3.162594e-07 0 -2.926176e-07) 
( 3.162594e-07 0 -2.926176e-07) 
( 2.625115e-07 0 -2.823373e-07) 
( 3.162594e-07 0 -2.926176e-07) 
( 3.162594e-07 0 -2.926176e-07) 
( 2.625115e-07 0 -2.823373e-07) 
( 3.162594e-07 0 -2.926176e-07) 
( 3.162594e-07 0 -2.926176e-07) 
( 2.624906e-07 0 -2.822951e-07) 
( 3.162004e-07 0 -2.926025e-07) 
( 3.162594e-07 0 -2.926176e-07) 
( 2.715749e-07 0 -2.865389e-07) 
( 3.081318e-07 0 -3.077764e-07) 
( 3.158067e-07 0 -2.922947e-07) 
( 3.488880e-07 0 -3.199086e-07) 
( 4.342005e-07 0 -3.322394e-07) 
( 4.342005e-07 0 -3.322394e-07) 
( 3.488880e-07 0 -3.199086e-07) 
( 4.342005e-07 0 -3.322394e-07) 
( 4.342005e-07 0 -3.322394e-07) 
( 3.488880e-07 0 -3.199086e-07) 
( 4.342005e-07 0 -3.322394e-07) 
( 4.342005e-07 0 -3.322394e-07) 
( 3.488880e-07 0 -3.199086e-07) 
( 4.342005e-07 0 -3.322394e-07) 
( 4.342005e-07 0 -3.322394e-07) 
( 3.488880e-07 0 -3.199086e-07) 
( 4.342005e-07 0 -3.322394e-07) 
( 4.342005e-07 0 -3.322394e-07) 
( 3.488880e-07 0 -3.199086e-07) 
( 4.342005e-07 0 -3.322394e-07) 
( 4.342005e-07 0 -3.322394e-07) 
( 3.488880e-07 0 -3.199086e-07) 
( 4.340486e-07 0 -3.323344e-07) 
( 4.342005e-07 0 -3.322394e-07) 
( 3.488880e-07 0 -3.199086e-07) 
( 4.340486e-07 0 -3.323344e-07) 
( 4.340486e-07 0 -3.323344e-07) 
( 3.657450e-07 0 -3.258259e-07) 
( 4.417576e-07 0 -3.385677e-07) 
( 4.325497e-07 0 -3.328852e-07) 
( 5.102248e-07 0 -3.502444e-07) 
( 5.746457e-07 0 -3.675332e-07) 
( 5.746457e-07 0 -3.675332e-07) 
( 5.102248e-07 0 -3.502444e-07) 
( 5.746457e-07 0 -3.675332e-07) 
( 5.746457e-07 0 -3.675332e-07) 
( 5.102248e-07 0 -3.502444e-07) 
( 5.746457e-07 0 -3.675332e-07) 
( 5.746457e-07 0 -3.675332e-07) 
( 5.102248e-07 0 -3.502444e-07) 
( 5.746457e-07 0 -3.675332e-07) 
( 5.746457e-07 0 -3.675332e-07) 
( 5.102248e-07 0 -3.502444e-07) 
( 5.746457e-07 0 -3.675332e-07) 
( 5.746457e-07 0 -3.675332e-07) 
( 5.102248e-07 0 -3.502444e-07) 
( 5.746457e-07 0 -3.675332e-07) 
( 5.746457e-07 0 -3.675332e-07) 
( 5.102248e-07 0 -3.502444e-07) 
( 5.746675e-07 0 -3.676065e-07) 
( 5.746675e-07 0 -3.676065e-07) 
( 5.102248e-07 0 -3.502444e-07) 
( 5.746675e-07 0 -3.676065e-07) 
( 5.746675e-07 0 -3.676065e-07) 
( 5.100981e-07 0 -3.435133e-07) 
( 5.683108e-07 0 -3.503412e-07) 
( 5.749087e-07 0 -3.679975e-07) 
( 6.557476e-07 0 -3.483502e-07) 
( 7.207992e-07 0 -3.215066e-07) 
( 7.207992e-07 0 -3.215066e-07) 
( 6.557476e-07 0 -3.483502e-07) 
( 7.207992e-07 0 -3.215066e-07) 
( 7.207992e-07 0 -3.215066e-07) 
( 6.557476e-07 0 -3.483502e-07) 
( 7.207992e-07 0 -3.215066e-07) 
( 7.207992e-07 0 -3.215066e-07) 
( 6.557476e-07 0 -3.483502e-07) 
( 7.207992e-07 0 -3.215066e-07) 
( 7.207992e-07 0 -3.215066e-07) 
( 6.557476e-07 0 -3.483502e-07) 
( 7.207992e-07 0 -3.215066e-07) 
( 7.207992e-07 0 -3.215066e-07) 
( 6.560551e-07 0 -3.481681e-07) 
( 7.207992e-07 0 -3.215066e-07) 
( 7.207992e-07 0 -3.215066e-07) 
( 6.560551e-07 0 -3.481681e-07) 
( 7.204408e-07 0 -3.222877e-07) 
( 7.204408e-07 0 -3.222877e-07) 
( 6.563625e-07 0 -3.479860e-07) 
( 7.200824e-07 0 -3.230688e-07) 
( 7.204408e-07 0 -3.222877e-07) 
( 6.421933e-07 0 -3.352618e-07) 
( 7.076963e-07 0 -3.015732e-07) 
( 7.181186e-07 0 -3.272403e-07) 
( 7.674491e-07 0 -2.682818e-07) 
( 8.170793e-07 0 -1.965953e-07) 
( 8.170793e-07 0 -1.965953e-07) 
( 7.674491e-07 0 -2.682818e-07) 
( 8.170793e-07 0 -1.965953e-07) 
( 8.170793e-07 0 -1.965953e-07) 
( 7.674491e-07 0 -2.682818e-07) 
( 8.170793e-07 0 -1.965953e-07) 
( 8.170793e-07 0 -1.965953e-07) 
( 7.674491e-07 0 -2.682818e-07) 
( 8.170793e-07 0 -1.965953e-07) 
( 8.170793e-07 0 -1.965953e-07) 
( 7.674491e-07 0 -2.682818e-07) 
( 8.170793e-07 0 -1.965953e-07) 
( 8.170793e-07 0 -1.965953e-07) 
( 7.670907e-07 0 -2.690629e-07) 
( 8.170793e-07 0 -1.965953e-07) 
( 8.170793e-07 0 -1.965953e-07) 
( 7.670907e-07 0 -2.690629e-07) 
( 8.170793e-07 0 -1.965953e-07) 
( 8.170793e-07 0 -1.965953e-07) 
( 7.667323e-07 0 -2.698440e-07) 
( 8.170793e-07 0 -1.965953e-07) 
( 8.170793e-07 0 -1.965953e-07) 
( 7.565621e-07 0 -2.543469e-07) 
( 7.861923e-07 0 -2.189256e-07) 
( 8.170793e-07 0 -1.965953e-07) 
( 8.020038e-07 0 -2.184174e-07) 
( 7.834618e-07 0 -1.016417e-07) 