/*--------------------------------*- C++ -*----------------------------------*\
| =========                 |                                                 |
| \\      /  F ield         | foam-extend: Open Source CFD                    |
|  \\    /   O peration     | Version:     3.1                                |
|   \\  /    A nd           | Web:         http://www.extend-project.de       |
|    \\/     M anipulation  |                                                 |
\*---------------------------------------------------------------------------*/
FoamFile
{
    version     2.0;
    format      ascii;
    class       volScalarField;
    location    "172800";
    object      DUGrad;
}
// * * * * * * * * * * * * * * * * * * * * * * * * * * * * * * * * * * * * * //

dimensions      [0 0 0 0 0 0 0];

internalField   nonuniform List<scalar> 
21211
(
0.000322463
0.00032248
0.000322513
0.000322152
0.000320891
0.000321477
0.000322157
0.00032652
0.000383764
0.000275961
0.000276097
0.000276158
0.000275938
0.000275339
0.000275381
0.000275523
0.000278255
0.000311899
0.000291072
0.00029102
0.000290981
0.000290882
0.000290908
0.000290967
0.000291805
0.000299323
0.000361732
0.000267178
0.000267287
0.000267281
0.000267236
0.000267088
0.00026688
0.000266829
0.00027056
0.000305767
0.000317492
0.000317437
0.000317399
0.000317299
0.000317371
0.000317392
0.000318058
0.000325296
0.000383056
0.000276159
0.000276271
0.000276264
0.000276234
0.000276135
0.000275959
0.000275992
0.000279809
0.000311081
0.000324906
0.000324874
0.000324846
0.00032478
0.000324875
0.000324893
0.000325673
0.000333423
0.00039358
0.000282685
0.000282778
0.000282776
0.000282738
0.000282652
0.000282491
0.000282558
0.000286557
0.000320296
0.000339153
0.000339085
0.000339034
0.000338931
0.000339019
0.000338965
0.000339528
0.000347463
0.000409381
0.000278039
0.000278091
0.000278064
0.000278015
0.000277906
0.000277733
0.000277867
0.000282609
0.00031849
0.000353657
0.000353653
0.000353647
0.000353651
0.00035371
0.000353726
0.00035472
0.000362624
0.000420157
0.000288066
0.000288066
0.000288039
0.000287987
0.000287875
0.000287699
0.000287913
0.000292877
0.00032878
0.000410306
0.000410258
0.000410204
0.000410072
0.000410081
0.000409874
0.000409537
0.000417079
0.00048508
0.000305585
0.000305513
0.000305476
0.000305425
0.000305341
0.00030517
0.000305375
0.000310682
0.000349175
0.000397114
0.000397108
0.000396994
0.000396931
0.000396952
0.000397168
0.000398413
0.000406898
0.000469016
0.000316867
0.000316756
0.000316682
0.00031661
0.000316508
0.000316357
0.000316705
0.000322294
0.000359494
0.000455513
0.000455484
0.000455595
0.000455499
0.000455251
0.000455153
0.000454971
0.00046263
0.000531731
0.000342835
0.000342735
0.00034267
0.000342613
0.000342509
0.000342328
0.000342539
0.000348315
0.000387386
0.000520266
0.00052028
0.000520818
0.000520789
0.000520531
0.000520576
0.000520331
0.000529162
0.000597823
0.000356335
0.000356278
0.000356303
0.000356296
0.000356211
0.000355839
0.00035553
0.000362844
0.000403541
0.000500345
0.000500291
0.000500552
0.000500452
0.000500131
0.000502229
0.000384714
0.000521089
0.00058989
0.000364892
0.000364873
0.000364877
0.000364824
0.00036472
0.000365509
0.000375607
0.000374649
0.000418273
0.000592241
0.000592136
0.000592024
0.000591774
0.000591237
0.000588364
0.000493269
0.000583849
0.000674211
0.000386314
0.000386317
0.000386307
0.000386289
0.0003863
0.000386098
0.00038599
0.000394895
0.000439451
0.000559173
0.000559089
0.000558974
0.000558734
0.000558187
0.000556692
0.000555379
0.000566024
0.000652116
0.00038267
0.000382716
0.000382707
0.000382654
0.000382527
0.000382341
0.000383298
0.000392943
0.000443591
0.000566202
0.000566124
0.000566007
0.000565777
0.000565324
0.000564569
0.000564477
0.000573575
0.000660317
0.000397137
0.000397161
0.000397147
0.000397099
0.000397019
0.000397032
0.000398313
0.000408368
0.000460476
0.00058885
0.000588826
0.000588726
0.00058853
0.000588155
0.000587595
0.000587744
0.000596461
0.000675128
0.000419342
0.000419378
0.000419371
0.000419331
0.000419271
0.00041934
0.00042067
0.00043002
0.000475708
0.00061301
0.000612935
0.000612812
0.000612561
0.000612083
0.000611352
0.000611403
0.000621439
0.000713116
0.00043234
0.000432346
0.00043233
0.000432289
0.00043223
0.000432303
0.000433661
0.000443291
0.000490837
0.000591745
0.000591709
0.00059161
0.000591422
0.00059109
0.000590701
0.000591547
0.00060376
0.000710902
0.000445564
0.000445577
0.00044556
0.000445518
0.000445467
0.00044559
0.000447093
0.00045686
0.000506175
0.000588064
0.000588013
0.000587921
0.000587744
0.000587431
0.00058706
0.000587888
0.000599867
0.00070438
0.000456652
0.000456649
0.000456631
0.00045659
0.000456543
0.000456677
0.000458209
0.000467998
0.000517534
0.000556258
0.00055624
0.000556176
0.000556074
0.000555923
0.000555864
0.000557092
0.000568553
0.000672294
0.000470818
0.000470817
0.000470797
0.000470759
0.000470718
0.000470841
0.00047221
0.000481172
0.000531972
0.000338937
0.000338856
0.000338883
0.000339236
0.000336991
0.000339189
0.000340334
0.000341449
0.00036935
0.000303122
0.000302598
0.000303472
0.000304172
0.000251787
0.000308554
0.000303924
0.00026075
0.000317447
0.000266344
0.000260625
0.000296111
0.000290104
0.000262581
0.000259864
0.000259757
0.000268247
0.000312075
0.000307481
0.000307447
0.000341694
0.000344228
0.000343695
0.000307966
0.000307798
0.000343756
0.000368563
0.000330658
0.000330665
0.000330179
0.000330169
0.000330221
0.000330626
0.000331344
0.000332817
0.000343451
0.000295652
0.000295623
0.000295498
0.00029538
0.000295349
0.000295363
0.000295557
0.000297229
0.000318617
0.000283103
0.000283092
0.000283072
0.000282929
0.00028294
0.000283115
0.000283867
0.000286947
0.000324622
0.000279953
0.000279933
0.000279921
0.000279838
0.000279823
0.000279966
0.000280696
0.000283534
0.000307886
0.000267556
0.000267558
0.000267533
0.00026754
0.000267503
0.000267505
0.000267942
0.000270853
0.000328912
0.000294831
0.00029481
0.000294793
0.000294792
0.000294673
0.000294723
0.000295315
0.000298271
0.000341389
0.000288527
0.000288518
0.000288486
0.000288412
0.000288373
0.000288276
0.000288443
0.000293108
0.000373267
0.000323071
0.000323037
0.000323013
0.000322968
0.00032292
0.000322986
0.000323617
0.000328569
0.000400088
0.000314989
0.000314986
0.00031497
0.000314957
0.000314968
0.000315249
0.000316499
0.000322378
0.000389866
0.000326012
0.000326019
0.000326006
0.000325999
0.000326043
0.00032633
0.000327518
0.000332332
0.0003808
0.000346196
0.000346208
0.000346192
0.000346177
0.000346195
0.000346389
0.000347275
0.000351204
0.000392644
0.000352044
0.000352062
0.000352049
0.000352036
0.00035206
0.000352275
0.000353248
0.000357603
0.000403716
0.000346855
0.000346887
0.000346888
0.000346902
0.000346984
0.000347337
0.000348646
0.000353812
0.000394729
0.00033367
0.000333676
0.000333663
0.000333645
0.000333663
0.000333901
0.00033512
0.000341236
0.000405372
0.000322262
0.000322284
0.000322297
0.000322331
0.000322458
0.000322914
0.000324442
0.000329998
0.000381576
0.000264791
0.00026496
0.000265196
0.000265042
0.000263653
0.000264236
0.000264874
0.000266724
0.000297235
0.000246765
0.000247003
0.00024796
0.000249197
0.000255054
0.000248637
0.000248041
0.000259772
0.000287574
0.000242043
0.000241349
0.000237545
0.000236742
0.00023551
0.000240596
0.000240687
0.000239388
0.000283552
0.000265509
0.000265854
0.000266028
0.000266529
0.000266174
0.000265797
0.000265692
0.000268161
0.00030742
0.000245067
0.00024505
0.000244897
0.000244857
0.000244852
0.00024495
0.000245158
0.000247709
0.000284876
0.00022304
0.000223031
0.000223001
0.000223004
0.000222964
0.000222862
0.000222797
0.000225147
0.00025781
0.000213369
0.000213361
0.000213345
0.000213312
0.000213249
0.000213127
0.0002131
0.000215574
0.000260014
0.000208183
0.000208183
0.00020817
0.000208145
0.000208103
0.000208043
0.000208142
0.00021095
0.000254765
0.000208019
0.000208002
0.000207991
0.000207969
0.000207917
0.000207828
0.000207905
0.000211011
0.000264587
0.000218533
0.000218544
0.000218537
0.000218514
0.000218462
0.000218405
0.000218568
0.000221809
0.000267496
0.000226616
0.000226612
0.000226604
0.000226571
0.000226511
0.000226416
0.000226667
0.000230904
0.000279213
0.000237703
0.000237698
0.000237684
0.000237646
0.000237566
0.000237445
0.000237665
0.000242547
0.000289032
0.000244234
0.000244229
0.000244215
0.000244175
0.000244093
0.000243999
0.000244381
0.000249568
0.000294915
0.000255069
0.000255063
0.000255051
0.000255023
0.000254978
0.000254984
0.000255614
0.000260717
0.000299393
0.000269412
0.000269398
0.000269384
0.000269358
0.00026932
0.000269344
0.000269971
0.000274735
0.000308818
0.000277273
0.000277253
0.000277236
0.000277205
0.000277158
0.000277162
0.00027773
0.000282095
0.000311788
0.000280848
0.00028083
0.000280809
0.000280775
0.000280729
0.000280769
0.000281513
0.000286246
0.00031353
0.00027157
0.000271542
0.00027152
0.000271483
0.000271431
0.000271462
0.00027226
0.000277903
0.000313399
0.000275489
0.000275473
0.000275456
0.000275429
0.000275404
0.000275488
0.000276273
0.000280879
0.000311567
0.000289315
0.000268908
0.000254832
0.000243029
0.000240941
0.000221717
0.000217911
0.000215221
0.00020809
0.000202497
0.000197356
0.000195825
0.000200745
0.000198612
0.000199366
0.000191241
0.000199164
0.000202483
0.000199552
0.000263927
0.000249319
0.000226757
0.000218594
0.000211204
0.000199661
0.000195632
0.000190792
0.000188442
0.0001825
0.000173639
0.000168369
0.000182884
0.000180994
0.000187224
0.000186938
0.000181072
0.000177406
0.000185484
0.000281913
0.000274028
0.000256623
0.00023447
0.000232811
0.000214673
0.000206386
0.000200731
0.000195737
0.000191931
0.000192365
0.000192658
0.000200113
0.00020714
0.000207601
0.000204989
0.000185664
0.000188254
0.000193894
0.000270597
0.000271553
0.000227535
0.000208079
0.000205402
0.000204576
0.000199101
0.000195639
0.000190588
0.000192113
0.00018072
0.000170149
0.000168566
0.000188936
0.000190612
0.000190377
0.000179954
0.000170364
0.000170554
0.000276263
0.000266578
0.000269751
0.000235322
0.000215001
0.000208785
0.000198897
0.000191833
0.000187643
0.000184536
0.000186675
0.000191626
0.000201638
0.000210635
0.0002079
0.000206441
0.000194643
0.000175233
0.000186867
0.000266368
0.000261744
0.000259491
0.0002104
0.000191722
0.000198678
0.000199776
0.000198622
0.000196259
0.000189646
0.000192269
0.000178788
0.000167541
0.000177352
0.0001931
0.00018467
0.000178008
0.000172173
0.00016884
0.000276801
0.000253497
0.000237246
0.000244027
0.000211969
0.000206039
0.000198925
0.000196036
0.000189173
0.000185384
0.000185636
0.000192433
0.000200378
0.000203293
0.000199142
0.000214197
0.000194432
0.000190218
0.000179584
0.000261791
0.000245442
0.000242785
0.000223509
0.000200446
0.00018023
0.00018765
0.000191492
0.000202165
0.000192921
0.000196501
0.00018368
0.000222956
0.000182635
0.000175454
0.000182387
0.000177613
0.00017694
0.000176709
0.000279136
0.000255822
0.000233551
0.000209711
0.000215436
0.000208428
0.000208685
0.000210447
0.000214838
0.000201242
0.000198659
0.00019032
0.000189905
0.000194038
0.000198491
0.000191902
0.000202947
0.000194003
0.000198862
0.000270596
0.00024349
0.000216867
0.000207241
0.00019942
0.00019059
0.000170718
0.000187996
0.000194962
0.00020277
0.000176962
0.000198223
0.000202376
0.000183611
0.000177949
0.000170136
0.000181038
0.000181906
0.000185218
0.000276685
0.000264598
0.000236198
0.000212843
0.000218664
0.000224138
0.000219695
0.000222077
0.000240108
0.00022498
0.000215559
0.000201692
0.000190364
0.000180961
0.00020093
0.000195792
0.000195427
0.000201692
0.000209589
0.000278667
0.000238742
0.000220006
0.000210717
0.000209953
0.000230127
0.000194605
0.000179169
0.000188829
0.00020294
0.00019791
0.000198687
0.000196995
0.000205203
0.000209128
0.000161165
0.000163481
0.000186685
0.000199777
0.000279602
0.000282384
0.000264483
0.000240386
0.000243136
0.000219456
0.0002307
0.000230151
0.000229779
0.00023832
0.000226067
0.000211347
0.000193484
0.00017652
0.000176637
0.00020717
0.000200551
0.000210494
0.000225865
0.00028595
0.000260675
0.00025061
0.000233187
0.000194179
0.000191359
0.00025562
0.000206688
0.000192608
0.000200452
0.000215117
0.000203434
0.000198399
0.000183375
0.000198522
0.000197548
0.000163623
0.000181174
0.000207527
0.000302659
0.000294729
0.000274244
0.0002605
0.000252049
0.000227078
0.000208956
0.000238651
0.00023567
0.000225174
0.000228279
0.000221906
0.000192959
0.000174669
0.000178089
0.000190148
0.000204229
0.000218863
0.000235841
0.000305036
0.000282829
0.000264669
0.00026675
0.00024349
0.00019003
0.000200002
0.000266225
0.00022053
0.000197819
0.000198195
0.000209417
0.000189406
0.000195931
0.000173479
0.000183606
0.000184123
0.000191214
0.000220608
0.000327772
0.000301643
0.000280218
0.000256157
0.000250517
0.000247486
0.000219064
0.000216164
0.000240238
0.000225981
0.000211404
0.000216889
0.00020405
0.000182447
0.000188314
0.000204158
0.000215912
0.000229391
0.000243971
0.000314462
0.000291293
0.000258821
0.00022158
0.000275501
0.000231613
0.000203037
0.000219328
0.000274239
0.000216934
0.000194336
0.000198811
0.000196047
0.000200954
0.000187713
0.000188564
0.000197924
0.000224085
0.000230085
0.000327872
0.000311534
0.000289156
0.000268071
0.0002512
0.000255933
0.000250637
0.000231798
0.000215691
0.000225982
0.000212089
0.000198343
0.000207609
0.000203678
0.000204442
0.000214515
0.000226287
0.000235693
0.00023785
0.000321327
0.000298118
0.000275939
0.000255658
0.000228817
0.000277733
0.000240685
0.000217713
0.000209833
0.000258242
0.000187152
0.000189354
0.000183094
0.000197276
0.000207203
0.00020572
0.000223349
0.000230847
0.000225914
0.000326833
0.000310897
0.000297757
0.000273478
0.000270627
0.000269182
0.000258698
0.00024141
0.000221146
0.000188431
0.000219436
0.000221274
0.000215854
0.000215895
0.000212713
0.000220329
0.000228962
0.000228386
0.000230095
0.000322894
0.00030458
0.000277675
0.000245738
0.000278824
0.000269394
0.000267253
0.000237143
0.000228032
0.00018743
0.000242423
0.000192068
0.000180712
0.000197558
0.000211427
0.000219856
0.000225332
0.000220801
0.000216776
0.000322563
0.000304798
0.00029136
0.000286861
0.000288496
0.000276413
0.000253201
0.000236324
0.000258645
0.000222946
0.000191983
0.000238836
0.000231163
0.000230392
0.000221167
0.000218874
0.000219335
0.00022135
0.000223356
0.000323291
0.00030752
0.00029223
0.000286125
0.000280704
0.000258834
0.000226934
0.000265686
0.000214794
0.000207201
0.000190528
0.000234618
0.000199214
0.000194682
0.000211882
0.00022101
0.000218059
0.000213834
0.00021252
0.000336241
0.000319697
0.000306387
0.000297695
0.000285632
0.00027551
0.000264292
0.000239762
0.00022742
0.000263098
0.000230021
0.000227027
0.000245209
0.000233617
0.000227867
0.000219933
0.00021976
0.000220904
0.00022082
0.00032646
0.000314217
0.000303094
0.00029726
0.000277518
0.00024981
0.000310126
0.000217634
0.000292587
0.000221378
0.000198503
0.000217371
0.000229681
0.00021789
0.000213432
0.000216386
0.000219885
0.000214751
0.000213188
0.000350998
0.000341494
0.000332125
0.000308917
0.000287777
0.000278183
0.000268152
0.000256155
0.000238668
0.000235535
0.00027535
0.000236617
0.000254027
0.000244708
0.000236979
0.000233428
0.000225268
0.000225923
0.000223
0.000336385
0.000327455
0.000318884
0.000303072
0.000276018
0.000344148
0.000238788
0.000285884
0.000221668
0.000278599
0.000226578
0.000197157
0.000227467
0.000236962
0.000238443
0.000217566
0.000219627
0.000223361
0.000214277
0.00036893
0.00036158
0.000340014
0.000315046
0.000295975
0.000278117
0.000272196
0.000268576
0.000263401
0.000257819
0.000259929
0.000261613
0.000259312
0.000260205
0.000249323
0.000247867
0.000240723
0.000228759
0.000226166
0.000350793
0.000342369
0.000328696
0.000326776
0.000385577
0.000265388
0.000319722
0.000244691
0.000277659
0.000249744
0.0002639
0.000239889
0.000235617
0.000250758
0.000251753
0.000240164
0.000220053
0.000221609
0.000223861
0.00037861
0.000366404
0.000345081
0.000322171
0.000287838
0.000280676
0.000277604
0.000283813
0.00028487
0.000281355
0.000283878
0.000289346
0.000278798
0.000266398
0.00026192
0.000278811
0.000255934
0.000243955
0.000232175
0.000363963
0.000355083
0.000326785
0.000280377
0.000327028
0.000375266
0.000276384
0.000315801
0.000266998
0.000265211
0.000277917
0.000284633
0.00027
0.000263551
0.000256556
0.000270533
0.000238168
0.000219468
0.000220662
0.000383467
0.0003645
0.000339632
0.00037651
0.000329715
0.000290557
0.000297736
0.000296683
0.000310251
0.00030813
0.000308834
0.000308942
0.000303878
0.000293362
0.000271292
0.000260587
0.000278845
0.000260014
0.000247113
0.000371023
0.000351469
0.000339508
0.000347383
0.000274145
0.000327148
0.000375014
0.000302039
0.000318742
0.000294465
0.000295839
0.00030193
0.000290673
0.000278329
0.000263005
0.000259605
0.000275265
0.000238149
0.000224479
0.000385426
0.000355436
0.000347835
0.00033454
0.000329641
0.000321643
0.000309718
0.000305295
0.000327899
0.000331623
0.000332065
0.000324869
0.000312768
0.000312985
0.000292183
0.000272305
0.000268562
0.000277057
0.000258228
0.000355096
0.000350148
0.00033815
0.000335565
0.000323119
0.00027153
0.000357968
0.000322819
0.000326794
0.000322621
0.000325843
0.000326317
0.000305077
0.000292179
0.00029617
0.000260517
0.000267213
0.000284266
0.000246581
0.000393618
0.000334784
0.00035909
0.000347095
0.000331671
0.000334675
0.000311491
0.000323769
0.000339894
0.000353586
0.00034891
0.000340064
0.00032305
0.000319499
0.000308237
0.000294132
0.000279526
0.00028068
0.000294369
0.000345266
0.000328693
0.000341849
0.000340813
0.000295053
0.000324681
0.000277274
0.000350543
0.000342366
0.000354501
0.000347825
0.000338648
0.0003151
0.000308735
0.000320385
0.000284963
0.000270728
0.000283515
0.000277303
0.00045434
0.000442907
0.000551045
0.000534724
0.000509912
0.000513025
0.000490366
0.00048754
0.000479918
0.0004525
0.000430815
0.000418438
0.000389351
0.000369626
0.000361175
0.000342468
0.00031203
0.000304141
0.000303098
0.000406741
0.000452148
0.000514184
0.000531609
0.000532136
0.00054499
0.00049293
0.000489599
0.000500493
0.000443783
0.000424946
0.000404373
0.000375488
0.000361762
0.000350957
0.000308589
0.000302757
0.000304275
0.000293133
0.000463323
0.000480847
0.000526299
0.000502375
0.000475699
0.000498999
0.000464976
0.000475409
0.000470211
0.00044484
0.000465698
0.00042796
0.000398597
0.000392337
0.000367257
0.000336607
0.000311281
0.000307231
0.000291042
0.000465323
0.000492137
0.000509655
0.000517079
0.000527769
0.000503824
0.000498233
0.000452298
0.000484709
0.000451295
0.000440392
0.000428177
0.000386286
0.000404349
0.000374577
0.00033391
0.000321257
0.000308565
0.000289644
0.000456662
0.000421166
0.000516568
0.000543164
0.000552327
0.000508762
0.000483597
0.000456528
0.000450956
0.000435879
0.000426979
0.000410974
0.00041373
0.000425699
0.000374334
0.000341059
0.000344309
0.000325651
0.000303312
0.000438609
0.000463932
0.000489271
0.000500154
0.000504304
0.00053696
0.000500041
0.000459138
0.000443769
0.000441781
0.000428463
0.00041402
0.000407739
0.00041069
0.00035712
0.000339061
0.000332979
0.000339817
0.000282238
0.000464126
0.000442529
0.000569615
0.000557566
0.000543673
0.000516561
0.000471511
0.000485002
0.000457234
0.000421215
0.000422225
0.000400451
0.000410031
0.000418202
0.000371055
0.000372258
0.000356
0.000331202
0.000303683
0.000399229
0.000475377
0.000497076
0.000512123
0.000519801
0.000498771
0.000491535
0.000485355
0.000438661
0.000434473
0.000423596
0.000420697
0.00041938
0.000420768
0.000349859
0.000363042
0.000350234
0.000318256
0.000282491
0.000476005
0.000523969
0.000547567
0.000544146
0.000521682
0.000510441
0.000572465
0.000469896
0.000430322
0.000454446
0.000414038
0.000394957
0.000421158
0.000397714
0.00038862
0.000383255
0.000365316
0.000336182
0.000300141
0.000406386
0.000490298
0.000526333
0.000527355
0.000517404
0.000491991
0.000479103
0.000499873
0.000464307
0.000455036
0.000416942
0.000394417
0.000415725
0.000376412
0.00036794
0.000369346
0.000357109
0.000320036
0.000285869
0.000477746
0.000504752
0.000617081
0.000534618
0.000569987
0.000507823
0.000495646
0.000487216
0.000438058
0.000409157
0.000450466
0.000413246
0.000422074
0.000395242
0.000389307
0.000401279
0.000369788
0.000333633
0.00029953
0.000413009
0.000498624
0.000520604
0.000518721
0.00049395
0.000499824
0.000494874
0.000497534
0.000457509
0.000438135
0.000442728
0.00039886
0.0004446
0.000374051
0.000390989
0.000388223
0.000358535
0.00031649
0.000300707
0.000512977
0.000510202
0.000531513
0.000542186
0.000587688
0.000515166
0.000550444
0.000509782
0.000492937
0.000447905
0.000422004
0.000412347
0.000422564
0.000396037
0.000407244
0.000391911
0.00036192
0.000330028
0.000300881
0.000435823
0.000506987
0.000543114
0.000548577
0.000516276
0.000511083
0.000499043
0.000460227
0.000445265
0.000428879
0.000447488
0.000424129
0.000446545
0.00036868
0.000401198
0.000385535
0.000348188
0.000331981
0.000291495
0.000481391
0.000601742
0.000620479
0.000541408
0.000689338
0.000582982
0.000605481
0.000537272
0.000630773
0.000458359
0.000426302
0.000417895
0.000411397
0.000388979
0.000402536
0.000388793
0.000357234
0.000326856
0.000313075
0.000444268
0.000528987
0.000585579
0.000546237
0.000522837
0.00052752
0.000532239
0.000503939
0.000450691
0.00046039
0.000419239
0.000421933
0.00040082
0.000374705
0.000397572
0.00037934
0.000338762
0.00031193
0.000308721
0.000575441
0.000680787
0.000668108
0.000631406
0.000643911
0.000659404
0.000480575
0.000515982
0.000598711
0.000465594
0.00041894
0.000409591
0.000386854
0.000398125
0.00041053
0.000387771
0.000356621
0.000341028
0.000340655
0.000474533
0.000571917
0.000596178
0.000579148
0.000536908
0.000510717
0.000488409
0.000500437
0.000469908
0.000449346
0.000437682
0.000411822
0.000415309
0.000371199
0.000409948
0.000405472
0.000360501
0.000327854
0.000336765
0.000586568
0.000754801
0.000741432
0.000584958
0.000614912
0.00066378
0.000517145
0.000622094
0.000478723
0.00047097
0.000448808
0.000440508
0.00038839
0.000427539
0.000421712
0.000388717
0.000357456
0.000371027
0.00035627
0.000489218
0.000573383
0.000615891
0.000603441
0.000585371
0.000547908
0.000525092
0.000521215
0.000483979
0.000513872
0.000503593
0.000393087
0.000432844
0.000429743
0.000434384
0.000384983
0.000359665
0.000360052
0.000344409
0.000613298
0.000736125
0.000661201
0.000738179
0.000680585
0.000649048
0.00064787
0.000660331
0.000551355
0.000482046
0.000436937
0.000454522
0.000398852
0.000431215
0.000422625
0.000369068
0.00035276
0.000358507
0.000344911
0.00051099
0.000616827
0.000616662
0.000614793
0.000551094
0.000527543
0.000581407
0.000511779
0.000499949
0.000534472
0.000482256
0.000429381
0.000420964
0.00042118
0.000414652
0.000356924
0.000358723
0.000362823
0.000344446
0.000640309
0.000704194
0.000720515
0.000725194
0.000687154
0.000624932
0.000630916
0.00048341
0.000617319
0.000494257
0.000434942
0.00048139
0.000425315
0.000404337
0.000385264
0.000384833
0.000362704
0.000357009
0.000342079
0.000522434
0.000642251
0.000655793
0.000647984
0.000616576
0.000601287
0.00054963
0.000509284
0.000547523
0.000518387
0.000502767
0.000481165
0.000410036
0.000405644
0.000412708
0.000339614
0.000356805
0.000360543
0.000338243
0.000676824
0.000781155
0.000795394
0.000756384
0.000636311
0.000702618
0.000644156
0.000636663
0.000672279
0.000492572
0.000453762
0.000438371
0.000436211
0.000408996
0.000394578
0.000395444
0.000373845
0.000369281
0.000358438
0.000542734
0.000642887
0.000685525
0.000639189
0.000602409
0.000572028
0.00053742
0.000595777
0.000540547
0.0005522
0.000515642
0.000458514
0.000398167
0.000392797
0.000402056
0.000372641
0.000352936
0.00036003
0.000373106
0.000713395
0.000821377
0.000763482
0.000721447
0.000816077
0.000764556
0.000625059
0.000693552
0.000569175
0.000520608
0.000497826
0.000478154
0.000468232
0.000432631
0.000411775
0.0003664
0.000381007
0.000373651
0.000365263
0.000582229
0.0006602
0.000688467
0.000694594
0.000643159
0.000611009
0.000598893
0.000559564
0.000531386
0.000553058
0.000574585
0.000431266
0.000500174
0.000388514
0.000388187
0.000375574
0.000347113
0.000357692
0.000357285
0.000732905
0.000809442
0.000805719
0.00076316
0.000656443
0.000660049
0.000728064
0.000618311
0.000496778
0.000545435
0.000480838
0.000497976
0.000434091
0.000446491
0.000437444
0.000389025
0.000397992
0.000389265
0.000374814
0.000567946
0.000704401
0.000695964
0.000662311
0.000642295
0.000620536
0.000600356
0.000568793
0.000563069
0.000601699
0.000594298
0.000465976
0.000478652
0.000459612
0.000392616
0.000414152
0.000385291
0.000353896
0.000354304
0.000696337
0.000820316
0.000812452
0.000805802
0.000781976
0.000650162
0.000570806
0.000581348
0.000571219
0.000546023
0.00049937
0.00048062
0.000465376
0.000416119
0.00047454
0.000416584
0.000427304
0.000408891
0.000388731
0.000589724
0.000675683
0.000708043
0.000724962
0.000642618
0.000593414
0.000635039
0.000562232
0.000604329
0.000633429
0.000543633
0.000504281
0.000444649
0.000462343
0.000456899
0.000409285
0.000425366
0.000367508
0.000366961
0.000693914
0.00078147
0.000731536
0.000732045
0.000753372
0.000661802
0.000645969
0.000605565
0.000699402
0.000529086
0.000509552
0.000479963
0.000483
0.000447499
0.000429076
0.000443451
0.000402602
0.000413706
0.00039812
0.000620576
0.000742408
0.000765993
0.000718001
0.000670042
0.000637965
0.00059955
0.000637184
0.000614839
0.000572779
0.000549954
0.000513049
0.000478021
0.000438589
0.00047029
0.000407078
0.000431112
0.00042854
0.000368578
0.000896428
0.000816916
0.000774014
0.000714193
0.000590602
0.000647834
0.000670169
0.000639581
0.000565371
0.000565781
0.000481178
0.000544397
0.000448077
0.000481979
0.000425638
0.00044318
0.000414307
0.000394613
0.000401081
0.000648885
0.000745619
0.000706863
0.000710441
0.000715522
0.000647006
0.000637371
0.000635275
0.000577811
0.000588109
0.000565486
0.000467015
0.000514218
0.00041486
0.000460642
0.000427194
0.000402975
0.000441664
0.000386727
0.000694044
0.00078968
0.000797211
0.000821982
0.000729306
0.000665929
0.000596917
0.000599464
0.000620621
0.000575152
0.00052563
0.000499317
0.000479295
0.00044591
0.000451914
0.000409518
0.000440425
0.000389152
0.000390704
0.000691394
0.00077585
0.000844046
0.000738249
0.000725016
0.000680715
0.000626244
0.000629038
0.000581837
0.000617269
0.000503207
0.00053627
0.000460098
0.000471654
0.000423193
0.000460517
0.000396415
0.000406098
0.000421023
0.000441244
0.000467127
0.00055577
0.000548957
0.00053445
0.000509902
0.000490327
0.000494871
0.000466069
0.000424658
0.000408805
0.000397247
0.000367973
0.000347379
0.000348981
0.000331924
0.000310491
0.000282207
0.000289025
0.000493018
0.000550843
0.000561619
0.000517791
0.000528805
0.000502769
0.000465702
0.000442512
0.000406298
0.000377239
0.000370629
0.000357685
0.000333011
0.000329351
0.000314487
0.000297348
0.000275782
0.000267957
0.000265076
0.000525905
0.000519703
0.000536867
0.000520975
0.000509491
0.000453379
0.000417172
0.000388428
0.000358085
0.000329038
0.000328717
0.000320449
0.000302045
0.000297629
0.000289857
0.000271419
0.000245489
0.000255311
0.000253312
0.000513566
0.000516265
0.000589823
0.000495844
0.000484003
0.000426247
0.000382263
0.000343119
0.000313246
0.000296008
0.000295575
0.000286026
0.000274632
0.00027367
0.000262134
0.000246257
0.000220409
0.000239656
0.000241689
0.000512134
0.000549853
0.000608315
0.000481684
0.000427942
0.000375422
0.000328885
0.000297647
0.000271645
0.000265326
0.000259148
0.000256945
0.000252246
0.000243024
0.000237594
0.000224056
0.000214222
0.000220036
0.000233321
0.000448192
0.000567478
0.000615865
0.000468612
0.000418594
0.000366312
0.000297802
0.000255861
0.00023239
0.000242018
0.000243913
0.000243443
0.000239068
0.000232054
0.000229668
0.000218663
0.000203676
0.000212859
0.000218279
0.000563643
0.00057165
0.000603091
0.000473577
0.000395219
0.000322072
0.000271111
0.000223711
0.000211146
0.000222099
0.000227812
0.000230729
0.000225649
0.000228368
0.000224961
0.000211369
0.000196967
0.000212104
0.000213967
0.000488663
0.00057014
0.000615822
0.000444007
0.000370983
0.000298613
0.000243591
0.000212588
0.000203327
0.000218485
0.000228988
0.000231217
0.000230411
0.000230496
0.000227182
0.000208988
0.000198388
0.000213641
0.000215545
0.000536279
0.000544482
0.000576331
0.000424207
0.000351523
0.000275722
0.000251736
0.000220043
0.000220175
0.000231992
0.000239756
0.000242729
0.000248068
0.000246554
0.000225873
0.000209263
0.00020421
0.000209456
0.000209937
0.000471053
0.000536966
0.000589572
0.000431757
0.000359013
0.000301273
0.000256188
0.000245507
0.000244381
0.000251066
0.000258469
0.000249692
0.000245441
0.000230041
0.00021068
0.000203144
0.000204536
0.000202569
0.000204824
0.000482809
0.000533335
0.000552531
0.000448521
0.000394657
0.000307057
0.000270215
0.000273417
0.000253638
0.000254016
0.000256149
0.000238284
0.000214735
0.000207294
0.000207369
0.000207161
0.000197442
0.000197424
0.000198825
0.000517411
0.000546955
0.000494127
0.000468506
0.000390516
0.000312631
0.000289998
0.000261275
0.000237955
0.000221531
0.000228411
0.000219531
0.000209832
0.000202901
0.000205922
0.000212614
0.000201967
0.000177088
0.000192382
0.00052346
0.000517961
0.000482445
0.000460445
0.000351317
0.000307425
0.000286177
0.000255309
0.000236193
0.00021558
0.000211078
0.000226459
0.000214413
0.000197857
0.000203474
0.000203935
0.000193789
0.000182723
0.000182325
0.000508969
0.000528985
0.000490767
0.000434686
0.000363785
0.000340603
0.000275072
0.00024194
0.000235201
0.000225621
0.000212591
0.000201069
0.00020992
0.00020899
0.000190652
0.000189701
0.000191456
0.000185326
0.000186275
0.000458121
0.00040228
0.000472069
0.000463431
0.000430546
0.000333433
0.000286091
0.000270935
0.000240369
0.000215274
0.000216978
0.000207526
0.000200041
0.000207419
0.000196917
0.000183345
0.000200557
0.000192337
0.000181938
0.000439716
0.000513155
0.000552593
0.000429029
0.000396948
0.000347496
0.000283807
0.00025985
0.000239965
0.000217863
0.000202769
0.000211434
0.000203986
0.000186615
0.000199468
0.00018571
0.000197244
0.000204043
0.00019774
0.000440245
0.000498627
0.000473452
0.000454128
0.000377218
0.000334439
0.000292568
0.000255198
0.000233574
0.000228996
0.000208055
0.000198235
0.000206829
0.000199135
0.000190568
0.000199388
0.000192333
0.000210034