/*--------------------------------*- C++ -*----------------------------------*\
| =========                 |                                                 |
| \\      /  F ield         | foam-extend: Open Source CFD                    |
|  \\    /   O peration     | Version:     3.1                                |
|   \\  /    A nd           | Web:         http://www.extend-project.de       |
|    \\/     M anipulation  |                                                 |
\*---------------------------------------------------------------------------*/
FoamFile
{
    version     2.0;
    format      ascii;
    class       volScalarField;
    location    "172800";
    object      epsilonSum;
}
// * * * * * * * * * * * * * * * * * * * * * * * * * * * * * * * * * * * * * //

dimensions      [0 0 0 0 0 0 0];

internalField   nonuniform List<scalar> 
21211
(
0.200761
0.200815
0.200726
0.200415
0.19932
0.198841
0.19853
0.200583
0.217872
0.222101
0.222147
0.221909
0.222072
0.221147
0.219843
0.216699
0.217421
0.259993
0.20349
0.203533
0.203409
0.203045
0.202006
0.20118
0.200397
0.202047
0.226603
0.21782
0.217865
0.217652
0.21774
0.216854
0.215255
0.211927
0.212153
0.252308
0.205986
0.206027
0.205905
0.205549
0.204724
0.204031
0.203825
0.210082
0.236962
0.22236
0.222423
0.222145
0.222304
0.221435
0.219857
0.216733
0.217629
0.257131
0.212755
0.21278
0.212642
0.212239
0.211377
0.210542
0.209901
0.213468
0.244281
0.228417
0.228494
0.228275
0.228178
0.227187
0.225331
0.221677
0.22041
0.258627
0.214478
0.214485
0.214367
0.214035
0.21346
0.212806
0.212956
0.22312
0.260192
0.228774
0.228872
0.228689
0.228275
0.227287
0.225347
0.221477
0.220831
0.257028
0.230244
0.230223
0.230078
0.22969
0.228889
0.228188
0.227805
0.234192
0.271788
0.235671
0.235759
0.235588
0.235164
0.234157
0.232288
0.22887
0.22833
0.264841
0.229937
0.229922
0.229869
0.229786
0.230226
0.230213
0.232663
0.249232
0.298473
0.245336
0.245393
0.245203
0.24477
0.243862
0.241919
0.23844
0.238926
0.277228
0.250053
0.249995
0.249947
0.249704
0.249204
0.248591
0.249138
0.258123
0.299194
0.255009
0.255056
0.254846
0.254393
0.253428
0.25132
0.247764
0.247361
0.284927
0.251806
0.251716
0.251188
0.251148
0.251119
0.252075
0.254742
0.271633
0.323384
0.269593
0.269572
0.269298
0.268813
0.267811
0.265698
0.261876
0.260735
0.29329
0.276545
0.276469
0.276749
0.276745
0.276839
0.277429
0.278705
0.296134
0.355195
0.280861
0.280824
0.280548
0.280072
0.279101
0.277011
0.27338
0.274087
0.312639
0.279536
0.279539
0.280108
0.280156
0.280277
0.281269
0.293505
0.307558
0.360407
0.291013
0.290922
0.290689
0.290175
0.289067
0.287433
0.285869
0.281962
0.318592
0.313531
0.313535
0.313602
0.31372
0.314053
0.314667
0.291476
0.336585
0.41264
0.304743
0.304686
0.304479
0.303996
0.302966
0.300604
0.297808
0.299246
0.337844
0.321113
0.321122
0.32114
0.321201
0.321444
0.322383
0.329403
0.350452
0.417863
0.310143
0.310052
0.309833
0.309327
0.308238
0.306057
0.30269
0.306171
0.348538
0.337623
0.337626
0.337645
0.33772
0.338028
0.339338
0.344852
0.365746
0.436008
0.320606
0.320538
0.320302
0.319772
0.318691
0.316716
0.314274
0.319141
0.364101
0.354715
0.354713
0.354731
0.354809
0.355128
0.356432
0.361667
0.38139
0.446162
0.332601
0.332536
0.332318
0.331841
0.330904
0.329294
0.327733
0.333767
0.373697
0.365294
0.365294
0.365341
0.36549
0.365967
0.367637
0.373798
0.396358
0.465855
0.340501
0.340426
0.340207
0.339735
0.338826
0.337315
0.336089
0.343049
0.383485
0.370538
0.370538
0.370577
0.370708
0.371155
0.37277
0.378758
0.400526
0.474345
0.346787
0.34672
0.346526
0.346117
0.345355
0.344202
0.343893
0.353177
0.401777
0.377644
0.377646
0.377696
0.377853
0.378354
0.380078
0.386247
0.408105
0.483429
0.350825
0.350756
0.350569
0.350181
0.349473
0.348451
0.348433
0.358104
0.406488
0.377218
0.377219
0.37725
0.377364
0.377773
0.37929
0.384835
0.40409
0.469516
0.354876
0.354835
0.354719
0.35449
0.354125
0.353832
0.355248
0.366794
0.417078
0.243076
0.243129
0.243085
0.242931
0.242768
0.242878
0.242263
0.246659
0.246633
0.22373
0.223644
0.224208
0.22434
0.208955
0.22471
0.222855
0.203729
0.211522
0.20991
0.208646
0.220525
0.219338
0.210692
0.207752
0.206798
0.212898
0.213955
0.23275
0.23285
0.241747
0.242004
0.241522
0.232947
0.233181
0.246578
0.242799
0.236841
0.236794
0.237066
0.236759
0.23653
0.237219
0.237489
0.239519
0.226829
0.214087
0.214059
0.214913
0.214968
0.21478
0.214566
0.214789
0.217175
0.211884
0.210431
0.21044
0.210699
0.211174
0.210947
0.210757
0.211055
0.212433
0.207369
0.205142
0.20515
0.205039
0.205633
0.205404
0.205163
0.205517
0.207415
0.200006
0.197742
0.19774
0.197675
0.197879
0.197879
0.197737
0.19814
0.198534
0.200628
0.211879
0.211861
0.211793
0.211612
0.212023
0.211648
0.211874
0.212814
0.206929
0.197896
0.197882
0.19785
0.197776
0.198017
0.19791
0.19877
0.201399
0.214361
0.229434
0.229396
0.229352
0.229263
0.22908
0.229524
0.230199
0.232503
0.238951
0.235926
0.235915
0.235884
0.235829
0.235762
0.236355
0.237826
0.242332
0.24874
0.25192
0.251913
0.251887
0.251847
0.251822
0.252039
0.253402
0.257322
0.263128
0.268123
0.268114
0.268091
0.268061
0.268057
0.26829
0.269573
0.273243
0.281028
0.277438
0.277429
0.277409
0.277385
0.277398
0.277665
0.279007
0.283025
0.291123
0.277697
0.277684
0.277663
0.277639
0.277656
0.277942
0.279346
0.283532
0.292486
0.264951
0.264945
0.264938
0.264947
0.265038
0.265498
0.267322
0.272829
0.289753
0.262262
0.262245
0.262234
0.262234
0.262312
0.262756
0.264519
0.269159
0.277805
0.211891
0.211964
0.21191
0.211571
0.21019
0.208835
0.205231
0.20284
0.24467
0.198377
0.198446
0.198604
0.198484
0.197948
0.196349
0.193883
0.197036
0.242539
0.203053
0.202798
0.20172
0.202259
0.201817
0.201372
0.197704
0.194603
0.251974
0.206476
0.206597
0.206389
0.206195
0.205773
0.204961
0.202629
0.204611
0.258896
0.20036
0.200355
0.200073
0.199629
0.199205
0.198303
0.195761
0.195621
0.247449
0.188285
0.188292
0.188162
0.18803
0.187625
0.186582
0.184101
0.183761
0.227331
0.18626
0.186274
0.186199
0.186036
0.185684
0.184719
0.182108
0.181583
0.238416
0.184789
0.184806
0.184709
0.184462
0.184041
0.182974
0.180396
0.179313
0.233692
0.187434
0.187428
0.187335
0.187122
0.186677
0.185629
0.182725
0.180295
0.237433
0.193256
0.193259
0.193171
0.192969
0.192482
0.19151
0.189269
0.18769
0.236382
0.198844
0.198788
0.198671
0.198409
0.197829
0.196613
0.193723
0.191101
0.234722
0.207351
0.207306
0.207183
0.2069
0.206274
0.204819
0.201857
0.199199
0.238834
0.214134
0.214052
0.213922
0.213627
0.213005
0.211669
0.209192
0.20821
0.248042
0.22139
0.221322
0.221186
0.220883
0.220264
0.219041
0.216874
0.216194
0.250088
0.228952
0.22888
0.22875
0.228469
0.227908
0.226836
0.225028
0.224837
0.2539
0.23211
0.232035
0.231903
0.231621
0.231067
0.230031
0.22837
0.228314
0.252871
0.233782
0.233719
0.233606
0.233369
0.232918
0.232133
0.23116
0.23268
0.255343
0.229421
0.229346
0.229213
0.228938
0.228414
0.227485
0.226264
0.228092
0.258348
0.23255
0.232505
0.232424
0.232264
0.231985
0.231581
0.231432
0.2345
0.261465
0.222361
0.22748
0.216172
0.205548
0.208153
0.200731
0.191745
0.191627
0.187477
0.184993
0.183295
0.183267
0.183489
0.182803
0.183033
0.17391
0.179692
0.184133
0.185217
0.226039
0.193549
0.194058
0.187248
0.178934
0.173297
0.170529
0.166517
0.164655
0.159445
0.154076
0.156088
0.168343
0.169782
0.175635
0.173431
0.166848
0.169521
0.176582
0.22903
0.229228
0.231738
0.203939
0.193144
0.190924
0.18385
0.179209
0.17503
0.174381
0.177324
0.179734
0.186312
0.189298
0.189909
0.188349
0.169633
0.171071
0.179829
0.216498
0.195294
0.18043
0.182191
0.179504
0.175146
0.171597
0.169829
0.166001
0.166497
0.158011
0.153797
0.158889
0.174035
0.175389
0.176201
0.170389
0.161801
0.163904
0.246968
0.216361
0.208192
0.209431
0.19451
0.181065
0.178018
0.171268
0.168596
0.16446
0.169313
0.176005
0.185384
0.193666
0.192182
0.188577
0.18008
0.163449
0.171908
0.209444
0.204072
0.186046
0.167758
0.171323
0.175221
0.172422
0.168574
0.169203
0.165187
0.166206
0.159308
0.154365
0.16512
0.175521
0.17153
0.169423
0.165521
0.159811
0.238995
0.229716
0.197515
0.185843
0.19098
0.186939
0.178441
0.183196
0.1739
0.168629
0.166397
0.174788
0.181581
0.187501
0.187306
0.190077
0.182042
0.177187
0.168877
0.200754
0.199009
0.190102
0.170204
0.161701
0.161578
0.176477
0.172618
0.169024
0.165608
0.169602
0.163827
0.181166
0.163666
0.163775
0.168891
0.166543
0.167259
0.166089
0.227279
0.219028
0.214247
0.178154
0.172024
0.194571
0.185421
0.188089
0.199626
0.187206
0.181254
0.177018
0.174903
0.17643
0.182957
0.182225
0.184759
0.182897
0.184902
0.199217
0.185209
0.176725
0.191175
0.176447
0.157857
0.152852
0.176386
0.17843
0.171128
0.161957
0.17737
0.178702
0.17044
0.161164
0.160637
0.166589
0.166709
0.169364
0.218486
0.21169
0.209112
0.197274
0.179666
0.188466
0.202866
0.192697
0.191151
0.20571
0.195508
0.187902
0.177968
0.167791
0.178538
0.183883
0.18556
0.190723
0.195763
0.204177
0.196861
0.181759
0.180036
0.182609
0.172232
0.161058
0.156834
0.170805
0.188553
0.181653
0.17899
0.180145
0.182083
0.176813
0.15136
0.154233
0.166737
0.174309
0.231996
0.216323
0.216793
0.214882
0.21291
0.18802
0.187317
0.207977
0.207588
0.193613
0.203719
0.196231
0.181692
0.166378
0.166503
0.185556
0.189812
0.199617
0.210936
0.207926
0.198635
0.190131
0.179864
0.168233
0.175424
0.181396
0.165678
0.168939
0.18219
0.196244
0.183156
0.177942
0.173032
0.176876
0.167142
0.151053
0.1622
0.174508
0.243274
0.23115
0.22154
0.214472
0.21806
0.209253
0.180992
0.189689
0.207586
0.202556
0.197464
0.202246
0.183162
0.164103
0.165868
0.177738
0.191673
0.204532
0.215089
0.211505
0.201056
0.194028
0.184351
0.174692
0.166032
0.184048
0.194478
0.177358
0.1706
0.179324
0.18843
0.177414
0.17358
0.164013
0.165696
0.162641
0.163241
0.177326
0.248883
0.235446
0.223282
0.209104
0.2067
0.211224
0.202661
0.184121
0.19617
0.207982
0.195121
0.188111
0.189943
0.173515
0.175714
0.187246
0.19755
0.204154
0.202123
0.215415
0.206316
0.192403
0.179516
0.190334
0.179704
0.179194
0.199375
0.199232
0.173709
0.167638
0.183933
0.183638
0.179356
0.168701
0.166393
0.16775
0.177967
0.18809
0.245792
0.235883
0.225521
0.213117
0.203076
0.207534
0.212559
0.211188
0.188424
0.18709
0.199034
0.184212
0.186566
0.19012
0.187568
0.19367
0.198312
0.195469
0.197183
0.220617
0.209426
0.201361
0.194518
0.18888
0.202618
0.188726
0.184791
0.192548
0.192298
0.155977
0.167592
0.172908
0.18281
0.17875
0.175467
0.180942
0.190172
0.198224
0.247562
0.236901
0.225077
0.210174
0.210005
0.21424
0.216313
0.212801
0.204411
0.162488
0.181811
0.204994
0.194594
0.199754
0.193565
0.19238
0.191942
0.192533
0.197394
0.226289
0.218383
0.207116
0.19697
0.214043
0.206235
0.195083
0.184443
0.189897
0.176888
0.182648
0.162112
0.164789
0.183785
0.185031
0.186767
0.19018
0.19488
0.191737
0.268432
0.252568
0.234669
0.221347
0.219205
0.221286
0.20879
0.199422
0.207895
0.202733
0.163922
0.195815
0.214428
0.198466
0.193531
0.188779
0.189494
0.194123
0.195174
0.234705
0.227688
0.221168
0.221906
0.214943
0.199889
0.190232
0.196066
0.1679
0.179899
0.178554
0.176551
0.16528
0.172232
0.192624
0.193181
0.191894
0.188482
0.185508
0.284465
0.271763
0.258415
0.243672
0.23356
0.216341
0.21092
0.196705
0.190987
0.209544
0.206894
0.192681
0.206556
0.209771
0.198494
0.19282
0.194226
0.197174
0.19779
0.24332
0.237651
0.23463
0.227843
0.211282
0.201785
0.225926
0.185654
0.206365
0.173481
0.176291
0.182591
0.178004
0.177091
0.18725
0.191377
0.188837
0.183724
0.183885
0.292153
0.284427
0.277994
0.26804
0.245851
0.226657
0.207101
0.202763
0.194595
0.196491
0.221122
0.216955
0.21215
0.215182
0.208104
0.207104
0.199485
0.202369
0.200439
0.252988
0.251117
0.242636
0.23007
0.219158
0.246358
0.195364
0.213801
0.184594
0.194993
0.171976
0.173427
0.183385
0.198875
0.189501
0.185986
0.186362
0.185535
0.181604
0.301258
0.296672
0.289884
0.274625
0.259964
0.236505
0.217368
0.20566
0.20833
0.210533
0.21661
0.228755
0.233091
0.21574
0.205947
0.21752
0.216798
0.204132
0.198592
0.267049
0.259354
0.247856
0.24149
0.268199
0.211949
0.233072
0.193885
0.205774
0.186207
0.182372
0.174136
0.183231
0.20451
0.199636
0.18465
0.182152
0.183899
0.186164
0.310182
0.305775
0.291359
0.274107
0.266373
0.248741
0.231505
0.220609
0.221166
0.226169
0.229819
0.233595
0.246582
0.228852
0.210209
0.209674
0.22348
0.220668
0.20803
0.274751
0.266963
0.251638
0.228412
0.235298
0.260582
0.212602
0.226425
0.195948
0.192301
0.195145
0.19118
0.189805
0.19741
0.21477
0.196896
0.178037
0.180618
0.185247
0.313175
0.304108
0.28778
0.295029
0.27253
0.266806
0.257023
0.236346
0.235393
0.241814
0.240065
0.241965
0.244744
0.262641
0.2347
0.213816
0.212641
0.227512
0.210542
0.277233
0.266559
0.258793
0.260766
0.226896
0.230587
0.255872
0.216425
0.218787
0.200974
0.203839
0.205882
0.208011
0.206257
0.204874
0.205977
0.192946
0.179222
0.187237
0.30696
0.294642
0.291328
0.282705
0.274891
0.269635
0.269683
0.251759
0.247593
0.251438
0.249227
0.251379
0.261214
0.247873
0.240005
0.241161
0.21943
0.219618
0.235963
0.272662
0.266656
0.258432
0.255385
0.244015
0.220282
0.241246
0.22578
0.220888
0.213675
0.21846
0.218616
0.217834
0.219222
0.205639
0.203534
0.206055
0.19773
0.189031
0.302786
0.288231
0.294948
0.290098
0.279182
0.280919
0.270965
0.272621
0.26186
0.262072
0.261787
0.262358
0.276862
0.252166
0.247274
0.248883
0.2457
0.220417
0.210258
0.265205
0.254975
0.258023
0.256686
0.235275
0.240808
0.220435
0.240757
0.231694
0.23065
0.231697
0.228041
0.225792
0.227
0.217693
0.206444
0.211994
0.213389
0.207038
0.28625
0.33808
0.368937
0.372653
0.378651
0.384365
0.375603
0.379568
0.376668
0.361413
0.340468
0.329409
0.311896
0.290344
0.280652
0.269618
0.244198
0.229608
0.227996
0.335076
0.328535
0.345872
0.341071
0.338019
0.330071
0.317909
0.326686
0.315724
0.298395
0.291074
0.279507
0.269455
0.264776
0.258424
0.245434
0.242782
0.225541
0.213339
0.28693
0.326083
0.349559
0.363621
0.370715
0.373725
0.363023
0.359713
0.354945
0.349037
0.333671
0.328037
0.304742
0.313713
0.308827
0.296545
0.268448
0.255624
0.247007
0.331399
0.333814
0.335948
0.336107
0.337291
0.32735
0.323414
0.314415
0.318363
0.308251
0.297136
0.269849
0.258519
0.253969
0.251159
0.226627
0.238291
0.23135
0.222639
0.293928
0.326893
0.355199
0.363735
0.365376
0.367406
0.361328
0.359154
0.358621
0.343195
0.327646
0.31217
0.302799
0.308346
0.317967
0.283922
0.273046
0.269999
0.249064
0.341341
0.322224
0.331129
0.333263
0.33362
0.338129
0.319323
0.311795
0.30747
0.293421
0.288985
0.275561
0.272764
0.273399
0.252188
0.256995
0.258639
0.230965
0.22124
0.283168
0.312774
0.349573
0.352881
0.359805
0.364894
0.360608
0.349037
0.34683
0.339299
0.316994
0.319833
0.304478
0.31051
0.313404
0.293382
0.284912
0.279755
0.2561
0.304803
0.319556
0.333446
0.340914
0.346002
0.331501
0.33105
0.317094
0.300131
0.301366
0.289164
0.287031
0.274191
0.28291
0.256452
0.268041
0.247307
0.234428
0.224421
0.30328
0.338234
0.36166
0.360056
0.360106
0.36103
0.346251
0.339773
0.337432
0.329136
0.333533
0.321718
0.315447
0.314414
0.315112
0.305462
0.29818
0.286801
0.250121
0.320604
0.333107
0.342827
0.347523
0.346538
0.332501
0.322212
0.318921
0.308977
0.308813
0.28224
0.28751
0.284508
0.263445
0.266334
0.268935
0.254345
0.243064
0.214
0.299853
0.338874
0.377126
0.37157
0.377369
0.355075
0.350734
0.358732
0.348947
0.333451
0.317443
0.328855
0.314631
0.304694
0.302775
0.301457
0.306905
0.280163
0.246753
0.311249
0.347921
0.347821
0.349191
0.342741
0.340859
0.331352
0.322638
0.306399
0.303513
0.296145
0.291443
0.278845
0.258035
0.263121
0.268992
0.25588
0.236289
0.214823
0.324973
0.332834
0.373411
0.372003
0.376206
0.369512
0.368713
0.357786
0.346517
0.335568
0.338466
0.323265
0.311057
0.31022
0.316781
0.319137
0.301289
0.270456
0.243888
0.332064
0.345721
0.364298
0.356803
0.348515
0.347038
0.335279
0.318759
0.310992
0.308129
0.313344
0.284832
0.284893
0.26725
0.275571
0.27111
0.254105
0.230919
0.221781
0.30872
0.389427
0.402364
0.377435
0.41043
0.376771
0.367235
0.35778
0.351988
0.33612
0.338293
0.315527
0.311394
0.31534
0.32176
0.314112
0.291496
0.258047
0.247698
0.336438
0.363494
0.375582
0.360606
0.353171
0.357945
0.357158
0.33476
0.310063
0.312041
0.298335
0.283647
0.277412
0.276867
0.284046
0.266044
0.233249
0.231883
0.223078
0.349814
0.40326
0.414055
0.41194
0.412353
0.39917
0.364128
0.354927
0.354924
0.341587
0.340583
0.320459
0.320453
0.303793
0.315195
0.305198
0.276881
0.254787
0.254601
0.350988
0.366421
0.374402
0.378939
0.360802
0.349974
0.344101
0.341348
0.321415
0.315854
0.307083
0.290876
0.285147
0.27933
0.27717
0.250743
0.22988
0.232331
0.223664
0.36544
0.445207
0.449923
0.409955
0.416064
0.406775
0.376236
0.38545
0.359069
0.339566
0.337362
0.342767
0.328391
0.300752
0.306318
0.293268
0.259107
0.257196
0.257467
0.375335
0.38872
0.395948
0.393578
0.382019
0.369167
0.361217
0.353181
0.333817
0.331485
0.314239
0.292896
0.293824
0.280935
0.270897
0.247085
0.241083
0.238123
0.231229
0.360845
0.44849
0.429776
0.45237
0.431135
0.418577
0.420324
0.386055
0.369367
0.362229
0.343013
0.342173
0.329629
0.299004
0.303631
0.300676
0.275481
0.27613
0.263469
0.379321
0.410931
0.398451
0.398383
0.377922
0.371279
0.380646
0.353668
0.344861
0.338029
0.31126
0.299283
0.289946
0.286216
0.272208
0.249798
0.252593
0.248568
0.238044
0.398232
0.449932
0.472707
0.464765
0.456821
0.43074
0.418603
0.389774
0.388313
0.366579
0.346863
0.337112
0.342397
0.327793
0.322604
0.30408
0.299698
0.299942
0.287634
0.416438
0.414692
0.420515
0.417116
0.40479
0.398841
0.377984
0.3588
0.362915
0.33634
0.331386
0.312006
0.290453
0.288208
0.2754
0.259265
0.259994
0.255573
0.239915
0.386412
0.462102
0.505637
0.481892
0.443772
0.458849
0.436532
0.412026
0.419269
0.368764
0.366439
0.351563
0.354752
0.333062
0.323237
0.309733
0.29811
0.303556
0.299406
0.401987
0.413146
0.438287
0.42612
0.410677
0.39074
0.380005
0.394541
0.365567
0.353252
0.335763
0.310613
0.294928
0.292726
0.280926
0.260509
0.262983
0.259121
0.264856
0.436108
0.482799
0.503433
0.488007
0.512648
0.488912
0.437181
0.443818
0.39995
0.384067
0.374819
0.369838
0.3508
0.335863
0.326061
0.318167
0.296173
0.304977
0.300499
0.433998
0.444459
0.456431
0.442702
0.425116
0.413077
0.40823
0.383923
0.373137
0.368184
0.359377
0.316487
0.322368
0.294495
0.28359
0.273762
0.267069
0.263044
0.26306
0.439123
0.513287
0.521434
0.508336
0.469005
0.465804
0.471069
0.439187
0.40536
0.39832
0.386058
0.372592
0.354595
0.334742
0.327178
0.31734
0.309552
0.308689
0.306271
0.42842
0.44279
0.446778
0.442201
0.432476
0.41889
0.408276
0.394511
0.390193
0.382983
0.371416
0.330763
0.326327
0.315206
0.288253
0.286009
0.268691
0.269453
0.266819
0.414759
0.515888
0.537398
0.532379
0.528183
0.469506
0.435772
0.437217
0.425205
0.410018
0.39281
0.378899
0.366746
0.354357
0.32885
0.325766
0.315483
0.316909
0.31373
0.431966
0.43554
0.463755
0.463953
0.440322
0.426717
0.436012
0.401575
0.407373
0.396881
0.36098
0.349876
0.323652
0.327216
0.316997
0.292427
0.285022
0.273649
0.280023
0.443204
0.518355
0.512873
0.520984
0.523563
0.4847
0.472399
0.448018
0.459658
0.406461
0.401492
0.38778
0.36945
0.363672
0.342508
0.328154
0.340175
0.315069
0.313604
0.478563
0.469663
0.487849
0.474244
0.459494
0.446185
0.430326
0.433473
0.416017
0.381807
0.370487
0.358451
0.335327
0.323892
0.328085
0.299629
0.295184
0.283448
0.281963
0.547512
0.525164
0.532288
0.5005
0.460289
0.476566
0.477876
0.448398
0.426997
0.422263
0.407949
0.389963
0.376956
0.353945
0.356346
0.327951
0.323998
0.326114
0.312558
0.48656
0.501483
0.476364
0.48848
0.484182
0.454553
0.448222
0.440286
0.410736
0.393718
0.382671
0.354306
0.35366
0.31968
0.325114
0.309542
0.295908
0.292169
0.276931
0.45983
0.515409
0.560887
0.546081
0.511494
0.483798
0.45512
0.432622
0.430527
0.427459
0.403816
0.39311
0.376577
0.360285
0.351013
0.345815
0.317805
0.32249
0.314036
0.514151
0.521213
0.527909
0.497586
0.485326
0.461204
0.442295
0.445818
0.416544
0.416498
0.369245
0.374581
0.341757
0.332044
0.315058
0.315885
0.29521
0.282222
0.271852
0.278185
0.344934
0.372622
0.394936
0.395199
0.393839
0.377979
0.371587
0.360787
0.345218
0.324189
0.318803
0.301327
0.28454
0.277551
0.290182
0.253881
0.232652
0.246975
0.312088
0.378344
0.409156
0.403094
0.387097
0.395922
0.375321
0.348284
0.336663
0.317988
0.303659
0.292564
0.283422
0.25015
0.252626
0.251735
0.244635
0.224725
0.232817
0.309738
0.366333
0.393415
0.396371
0.375954
0.37519
0.341524
0.318381
0.30501
0.277558
0.272925
0.278277
0.250417
0.248051
0.250006
0.244415
0.224842
0.22517
0.223792
0.312728
0.368386
0.386835
0.391617
0.374782
0.341884
0.318396
0.284302
0.276477
0.260858
0.249975
0.247342
0.24456
0.236479
0.224498
0.219701
0.206082
0.218537
0.220356
0.32398
0.381391
0.383389
0.370598
0.358594
0.303701
0.286416
0.258761
0.237099
0.236493
0.229078
0.224551
0.224297
0.210432
0.210049
0.203806
0.19145
0.203853
0.212748
0.312853
0.391014
0.395134
0.379452
0.335252
0.300609
0.258428
0.240764
0.209069
0.222467
0.224345
0.219982
0.213568
0.202759
0.209397
0.19652
0.187441
0.198713
0.199386
0.327251
0.401009
0.401531
0.368841
0.323137
0.272403
0.24151
0.209374
0.201684
0.207894
0.207788
0.208643
0.201698
0.209375
0.203525
0.190443
0.185489
0.197161
0.197135
0.352783
0.39955
0.409287
0.360802
0.320027
0.26341
0.222681
0.202264
0.194452
0.204963
0.206591
0.206731
0.204565
0.203231
0.206744
0.186215
0.18798
0.196
0.196993
0.335336
0.386488
0.391119
0.347699
0.304521
0.247095
0.229892
0.205054
0.205701
0.208178
0.21611
0.21459
0.221476
0.204866
0.205853
0.190026
0.190045
0.190601
0.192696
0.336016
0.397657
0.404192
0.344658
0.314225
0.268701
0.229981
0.222737
0.223178
0.221349
0.228328
0.206962
0.222458
0.196457
0.189265
0.186191
0.18957
0.188098
0.188015
0.32455
0.384231
0.393539
0.346626
0.313649
0.269985
0.245902
0.235639
0.222878
0.226171
0.23138
0.203505
0.196727
0.190918
0.191092
0.186815
0.186281
0.185042
0.183371
0.348427
0.391687
0.38872
0.356123
0.31577
0.28067
0.26082
0.238518
0.216116
0.208032
0.208977
0.20194
0.191317
0.188663
0.191299
0.189109
0.182077
0.167125
0.179482
0.309047
0.368504
0.368163
0.350185
0.309767
0.269591
0.249961
0.227927
0.212606
0.200317
0.195706
0.202529
0.197752
0.180751
0.191133
0.191567
0.178841
0.166943
0.168502
0.330019
0.364194
0.364186
0.343657
0.308757
0.28222
0.253306
0.22254
0.209004
0.204514
0.197471
0.184924
0.19687
0.185406
0.175955
0.179045
0.175399
0.169486
0.175071
0.309742
0.314336
0.363083
0.354051
0.332481
0.280549
0.250662
0.239216
0.222235
0.202076
0.19733
0.194474
0.185308
0.193251
0.180952
0.17244
0.182627
0.177494
0.164882
0.278175
0.38089
0.403434
0.344861
0.317328
0.296895
0.255776
0.23028
0.219855
0.204754
0.189593
0.195943
0.189656
0.173853
0.185978
0.171699
0.184021
0.187471
0.178363
0.313024
0.350897
0.364468
0.352821
0.313367
0.279353
0.264771
0.239595
0.212303
0.203948
0.192922
0.185313
0.192211
0.18376
0.176492
0.183874
0.172726
0.192698
0.190354
0.334171
0.373456
0.379321
0.35238
0.317728
0.2854
0.255503
0.242201
0.216454
0.204912
0.203341
0.187891
0.195142
0.193713
0.176592
0.190107
0.181763
0.17984
0.190227
0.318179
0.36712
0.366298
0.343216
0.313109
0.289283
0.252661
0.238123
0.222382
0.201358
0.2035
0.193057
0.187067
0.195183
0.185415
0.171835
0.185446
0.170426
0.182477
0.318586
0.333194
0.342126
0.346858
0.349568
0.335438
0.329183
0.331785
0.311222
0.289266
0.283548
0.267403
0.248278
0.253777
0.240922
0.212834
0.20794
0.208635
0.203191
0.356768
0.365642
0.368715
0.349565
0.34012
0.335485
0.311891
0.305699
0.279152
0.271242
0.261967
0.247146
0.234506
0.247807
0.242155
0.226266
0.208341
0.203173
0.195409
0.350236
0.371062
0.361913
0.349295
0.321934
0.306329
0.283771
0.271087
0.250624
0.24268
0.246748
0.228193
0.222585
0.229339
0.213396
0.204794
0.20068
0.201391
0.212981
0.362452
0.340345
0.350257
0.347759
0.310268
0.288791
0.268735
0.250417
0.231982
0.220603
0.230468
0.212034
0.214628
0.212359
0.211089
0.192406
0.187693
0.195048
0.189659
0.372662
0.344175
0.361387
0.329006
0.289163
0.263568
0.23248
0.221221
0.210767
0.208164
0.19948
0.213597
0.19769
0.187293
0.201173
0.180206
0.180316
0.186504
0.190115
0.319038
0.377678
0.359088
0.319182
0.289219
0.250512
0.215301
0.201827
0.196721
0.196553
0.194476
0.194865
0.185941
0.181764
0.193754
0.180897
0.175212
0.186823
0.180841
0.375354
0.372789
0.340832
0.328628
0.278906
0.240305
0.215059
0.198282
0.187095
0.188631
0.194494
0.194065
0.190121
0.183369
0.197359
0.178953
0.169836
0.175635
0.170256
0.370649
0.354186
0.364662
0.319223
0.271526
0.240811
0.217224
0.194158
0.191685
0.181046
0.191231
0.184256
0.194657
0.183107
0.185693
0.170867
0.172341
0.178726
0.165278
0.375262
0.35783
0.377711
0.311569
0.264938
0.224643
0.21753
0.207895
0.194408
0.190178
0.197673
0.195031
0.201746
0.185133
0.183434
0.170604
0.174395
0.167597
0.162672
0.363591
0.343802
0.368978
0.321928
0.274038
0.249532
0.226564
0.214424
0.203017
0.212783
0.199183
0.182873
0.188146
0.187626
0.169581
0.176351
0.174703
0.169531
0.159139
0.35364
0.355507
0.368166
0.302224
0.272877
0.255833
0.217719
0.214962
0.205425
0.203832
0.188405
0.170304
0.169964
0.177657
0.17728
0.166368
0.171854
0.171826
0.159392
0.335782
0.37126
0.343706
0.323346
0.27381
0.259883
0.233041
0.212493
0.201754
0.178496
0.178714
0.191063
0.176848
0.175631
0.17752
0.155215
0.158615
0.168875
0.164626
0.350355
0.333848
0.320019
0.296557
0.272282
0.249803
0.222887
0.214517
0.201564
0.184512
0.173276
0.186919
0.18084
0.170281
0.176709
0.171594
0.157161
0.161303
0.168909
0.344166
0.330556
0.323107
0.305187
0.278428
0.254665
0.238015
0.205097
0.192501
0.197547
0.193384
0.163483
0.182236
0.161111
0.164418
0.175298
0.16789
0.156354
0.166735
0.32516
0.303237
0.312285
0.305298
0.285614
0.256599
0.240056
0.219533
0.201261
0.184173
0.188011
0.187127
0.174203
0.180674
0.170698
0.168003
0.174329
0.164997
0.165668
0.316113
0.310156
0.321462
0.307438
0.291534
0.267298
0.238161
0.221269
0.210513
0.19112
0.177713
0.184518
0.167946
0.176329
0.181329
0.162437
0.172113
0.179365
0.169306
0.316186
0.348253
0.334041
0.313096
0.28863
0.261678
0.24485
0.215149
0.202034
0.201344
0.190099
0.17807
0.183826
0.17069
0.179834
0.181006
0.171321
0.181143
0.179897
0.329488
0.320182
0.342078
0.323302
0.294849
0.249318
0.243999
0.233108
0.209536
0.200248
0.198182
0.181545
0.18719
0.177117
0.17667
0.186109
0.169912
0.177044
0.182981
0.328945
0.310417
0.332876
0.334564
0.297226
0.257077
0.240075
0.23126
0.224002
0.194663
0.19847
0.192876
0.181306
0.185708
0.174817
0.178135
0.181821
0.16703
0.176235
0.279189
0.34717
0.361012
0.332878
0.308114
0.285391
0.246544
0.231682
0.216378
0.195727
0.200039
0.192104
0.185599
0.192861
0.183314
0.169655
0.184068
0.168969
0.181666
0.323439
0.310495
0.323235
0.321634
0.287176
0.2506
0.232367
0.22555
0.217778
0.189089
0.195247
0.188394
0.177473
0.18345
0.172171
0.175785
0.179901
0.165481
0.174221
0.292957
0.356316
0.358193
0.346712
0.313967
0.28541
0.255513
0.23897
0.215041
0.209224
0.207722
0.188759
0.20502
0.19451
0.173961
0.18927
0.17874
0.174987
0.184774
0.311813
0.314379
0.338265
0.316075
0.285328
0.24471
0.2387
0.226499
0.206718
0.192457
0.200213
0.175013
0.184095
0.172225
0.172236
0.181785
0.162227
0.168289
0.172782
0.280797
0.361619
0.376365
0.374102
0.322822
0.291328
0.273531
0.257847
0.231943
0.229483
0.216846
0.203324
0.213783
0.200344
0.19395
0.194662
0.177823
0.189873
0.18345
0.311689
0.337446
0.34088
0.317051
0.288353
0.264598
0.250185
0.227572
0.204018
0.208991
0.205682
0.189118
0.189938
0.173102
0.181005
0.179039
0.164936
0.174845
0.163837
0.292291
0.382574
0.393773
0.367217
0.326163
0.305048
0.286145
0.259774
0.239013
0.224765
0.213443
0.221236
0.214424
0.216914
0.216038
0.197484
0.199082
0.194909
0.182771
0.329116
0.338909
0.327797
0.31913
0.301587
0.282891
0.261014
0.230631
0.224381
0.215228
0.203903
0.206384
0.186382
0.192902
0.196937
0.167709
0.176044
0.166514
0.16053
0.290396
0.372356
0.396108
0.389299
0.366526
0.308972
0.278077
0.267031
0.240439
0.219897
0.221497
0.209236
0.215538
0.211438
0.206188
0.20503
0.212599
0.201707
0.18398
0.329337
0.345843
0.346314
0.333474
0.310552
0.280007
0.260982
0.245028
0.226713
0.206662
0.218178
0.207421
0.202223
0.208531
0.190086
0.184363
0.184182
0.162593
0.170802
0.300157
0.387286
0.402677
0.37001
0.352219
0.318673
0.286264
0.257303
0.243105
0.22837
0.217236
0.215421
0.207939
0.201921
0.190824
0.207766
0.213487
0.200288
0.199915
0.330519
0.345009
0.34559
0.333669
0.325691
0.289392
0.265231
0.234768
0.216728
0.213192
0.190562
0.205029
0.204163
0.195521
0.191694
0.197506
0.179459
0.176266
0.176006
0.317039
0.354031
0.403971
0.377072
0.341226
0.296616
0.273837
0.255502
0.236859
0.218473
0.21303
0.217161
0.208437
0.206466
0.206569
0.213325
0.195235
0.195665
0.215868
0.336295
0.344673
0.361572
0.326169
0.309937
0.281336
0.26356
0.237978
0.226817
0.206742
0.20369
0.204798
0.189897
0.192881
0.19702
0.18795
0.194587
0.192668
0.188093
0.273205
0.375678
0.387484
0.365968
0.339468
0.297644
0.275071
0.247874
0.220264
0.220305
0.221186
0.203454
0.197208
0.202929
0.200692
0.196721
0.191423
0.200929
0.216263
0.34967
0.342776
0.345856
0.332751
0.304308
0.266205
0.257373
0.24284
0.207399
0.203237
0.210436
0.204119
0.182183
0.188432
0.194834
0.176721
0.190431
0.202639
0.188159
0.292273
0.35674
0.389114
0.342522
0.31218
0.289665
0.265957
0.252011
0.231116
0.22421
0.217122
0.198313
0.194892
0.200109
0.201846
0.188703
0.196257
0.205293
0.207375
0.334644
0.352399
0.329979
0.316128
0.294978
0.268305
0.241616
0.229662
0.213771
0.210577
0.188101
0.185273
0.194455
0.190013
0.166515
0.181966
0.183629
0.192405
0.196546
0.325802
0.379369
0.371561
0.324858
0.315254
0.293973
0.275322
0.25678
0.239948
0.223153
0.216496
0.207504
0.206149
0.200245
0.192644
0.190205
0.199781
0.219441
0.205267
0.353276
0.344955
0.378392
0.327764
0.310399
0.287347
0.248843
0.238164
0.222896
0.204839
0.192381
0.198882
0.199802
0.185481
0.172013
0.18336
0.173258
0.178601
0.193083
0.284098
0.350765
0.360652
0.32286
0.309005
0.276686
0.257054
0.246975
0.23718
0.221743
0.218796
0.214707
0.212407
0.204562
0.188274
0.192732
0.199688
0.213128
0.20118
0.344891
0.346787
0.371021
0.319899
0.300277
0.260748
0.244559
0.236134
0.220972
0.212299
0.20655
0.216254
0.191662
0.186695
0.178616
0.18526
0.174548
0.168561
0.186304
0.278681
0.34782
0.352593
0.310296
0.293539
0.265175
0.250655
0.225017
0.228551
0.216643