/*--------------------------------*- C++ -*----------------------------------*\
| =========                 |                                                 |
| \\      /  F ield         | foam-extend: Open Source CFD                    |
|  \\    /   O peration     | Version:     3.1                                |
|   \\  /    A nd           | Web:         http://www.extend-project.de       |
|    \\/     M anipulation  |                                                 |
\*---------------------------------------------------------------------------*/
FoamFile
{
    version     2.0;
    format      ascii;
    class       volScalarField;
    location    "172800";
    object      epsilonEq;
}
// * * * * * * * * * * * * * * * * * * * * * * * * * * * * * * * * * * * * * //

dimensions      [0 0 0 0 0 0 0];

internalField   nonuniform List<scalar> 
21211
(
0.111433
0.111521
0.111251
0.11051
0.108915
0.106365
0.101939
0.0970724
0.101383
0.121157
0.121252
0.120871
0.12044
0.118616
0.115239
0.107834
0.0990619
0.12245
0.11167
0.111739
0.111424
0.110609
0.108966
0.105988
0.100878
0.0957375
0.105568
0.117046
0.117149
0.116762
0.116248
0.114404
0.110598
0.10263
0.0924549
0.112015
0.114587
0.114651
0.11433
0.113487
0.112057
0.109161
0.104523
0.102825
0.114713
0.119814
0.119958
0.119501
0.119015
0.11714
0.113276
0.105387
0.0958625
0.114388
0.116785
0.11681
0.116461
0.115575
0.114073
0.110947
0.105747
0.103196
0.118427
0.12041
0.120562
0.120148
0.119473
0.117423
0.113164
0.104407
0.0920731
0.108751
0.120474
0.12045
0.120101
0.119264
0.118029
0.115027
0.110447
0.111629
0.132155
0.120522
0.120726
0.120318
0.119376
0.117266
0.112817
0.103709
0.0915977
0.105654
0.12695
0.12687
0.126488
0.125581
0.124077
0.120959
0.115913
0.116372
0.13807
0.125962
0.126138
0.125735
0.124757
0.122571
0.118082
0.109052
0.0961639
0.109442
0.146014
0.145896
0.145593
0.144965
0.144247
0.142627
0.140021
0.147396
0.181405
0.132555
0.13268
0.132237
0.131223
0.129051
0.12441
0.115152
0.103168
0.117791
0.142028
0.141835
0.141506
0.140702
0.139038
0.136499
0.132303
0.135712
0.162108
0.137137
0.137228
0.136764
0.135706
0.133425
0.128491
0.118853
0.105348
0.119251
0.160474
0.160226
0.16041
0.159741
0.158532
0.157016
0.154731
0.162258
0.199449
0.145786
0.145755
0.14526
0.144168
0.141819
0.136753
0.126642
0.112123
0.119988
0.181129
0.180856
0.181949
0.181332
0.180216
0.178273
0.174599
0.188146
0.235166
0.153653
0.153564
0.153016
0.151888
0.149489
0.144272
0.133917
0.120797
0.136068
0.185118
0.185005
0.185331
0.184848
0.183677
0.181674
0.154877
0.194507
0.233073
0.160207
0.159987
0.159435
0.158202
0.155501
0.150471
0.141749
0.122296
0.135519
0.220855
0.220731
0.220531
0.220069
0.219205
0.217761
0.196874
0.23157
0.304693
0.167998
0.167855
0.167332
0.166121
0.163517
0.157695
0.147706
0.133764
0.147675
0.220666
0.22062
0.220389
0.219875
0.218884
0.217198
0.21949
0.23415
0.294023
0.174773
0.174544
0.173968
0.172637
0.169757
0.163712
0.152152
0.139874
0.157611
0.233364
0.233309
0.233048
0.232493
0.231484
0.230192
0.231032
0.245335
0.309273
0.182597
0.182426
0.181792
0.180356
0.177334
0.171281
0.160425
0.149202
0.169981
0.242452
0.242388
0.242104
0.241513
0.240463
0.239097
0.239602
0.252661
0.309869
0.193438
0.193264
0.192617
0.191169
0.188186
0.182334
0.172152
0.16189
0.176477
0.261131
0.26106
0.26078
0.260206
0.259221
0.258079
0.259395
0.275687
0.33784
0.199561
0.199349
0.19867
0.197169
0.19411
0.188183
0.178059
0.168352
0.18301
0.257922
0.257859
0.257563
0.256957
0.255927
0.254751
0.256059
0.27204
0.340977
0.207199
0.206991
0.206311
0.204825
0.201832
0.196145
0.186845
0.179827
0.206047
0.265596
0.265533
0.265237
0.264638
0.263639
0.26256
0.264126
0.280714
0.355019
0.210896
0.210673
0.209986
0.208492
0.205511
0.199896
0.190809
0.184026
0.209639
0.255774
0.255729
0.25542
0.254793
0.25374
0.25255
0.253687
0.267703
0.328933
0.221295
0.221104
0.220483
0.219144
0.216512
0.211676
0.20418
0.199506
0.227459
0.137245
0.137334
0.137116
0.136604
0.13556
0.133713
0.129399
0.125381
0.111429
0.125187
0.125089
0.125328
0.125083
0.111044
0.122048
0.116992
0.0892314
0.0814435
0.120733
0.11948
0.128446
0.127536
0.120507
0.115202
0.110302
0.109914
0.103606
0.138468
0.138394
0.145278
0.144929
0.143952
0.135497
0.132795
0.136827
0.126639
0.137508
0.137511
0.137635
0.137084
0.136197
0.135351
0.132903
0.128953
0.109713
0.125788
0.125772
0.126363
0.126099
0.125278
0.123697
0.121111
0.117426
0.106051
0.120447
0.120437
0.120497
0.120673
0.119878
0.118455
0.11622
0.112388
0.10607
0.115066
0.115056
0.114833
0.115134
0.114334
0.112924
0.111025
0.108467
0.0994773
0.113759
0.113721
0.113526
0.113399
0.113018
0.111716
0.109758
0.105783
0.108372
0.12014
0.120078
0.119879
0.119435
0.119339
0.117784
0.115741
0.112398
0.105694
0.122816
0.122732
0.122573
0.122221
0.121855
0.120956
0.119316
0.117806
0.129583
0.139607
0.139507
0.139325
0.138935
0.138129
0.137423
0.135573
0.133344
0.13525
0.143938
0.14386
0.143706
0.143379
0.142733
0.14205
0.14125
0.142132
0.143209
0.154444
0.154385
0.154228
0.153898
0.15328
0.152313
0.151481
0.15191
0.151837
0.167865
0.167796
0.167629
0.167287
0.166652
0.165646
0.164669
0.164808
0.167456
0.176154
0.176074
0.175897
0.175537
0.174876
0.173839
0.172819
0.173045
0.173692
0.174429
0.174334
0.174148
0.173774
0.173094
0.172049
0.171088
0.171592
0.173905
0.172892
0.172794
0.172612
0.172252
0.171616
0.170685
0.170023
0.171612
0.181183
0.165383
0.165271
0.165087
0.164727
0.164102
0.163221
0.162664
0.163724
0.165569
0.111409
0.11153
0.111328
0.110578
0.108415
0.105094
0.09741
0.0864333
0.108952
0.108412
0.108513
0.108475
0.108084
0.107286
0.103222
0.0969378
0.0937684
0.121017
0.10799
0.107707
0.106362
0.106221
0.104996
0.102871
0.0959962
0.0856178
0.126447
0.119144
0.119299
0.119185
0.118712
0.117539
0.114851
0.109213
0.104899
0.142512
0.110973
0.110992
0.110588
0.109971
0.108886
0.106558
0.101176
0.0957055
0.132308
0.103407
0.103438
0.103157
0.102734
0.101685
0.0992503
0.093848
0.0870826
0.115345
0.102614
0.102645
0.102439
0.101978
0.101012
0.0987681
0.0936122
0.0878751
0.131288
0.0977992
0.0978365
0.0976184
0.0970988
0.0960969
0.0938339
0.0887339
0.0823411
0.123756
0.100053
0.100035
0.0998135
0.0993093
0.098275
0.0959844
0.0905666
0.0828707
0.128791
0.10563
0.105629
0.10541
0.104915
0.103816
0.101552
0.0965116
0.0891597
0.126351
0.107248
0.107122
0.106855
0.106258
0.104968
0.102256
0.0963126
0.0872405
0.120106
0.112561
0.112458
0.112176
0.111531
0.11013
0.107013
0.100417
0.089962
0.117428
0.1188
0.118607
0.118294
0.11759
0.1161
0.112937
0.106608
0.0977582
0.125955
0.123152
0.122993
0.122659
0.121919
0.120389
0.117292
0.111266
0.102907
0.125363
0.130094
0.129913
0.129568
0.128817
0.12729
0.124256
0.118454
0.110391
0.127561
0.133551
0.133355
0.132989
0.132202
0.130621
0.127518
0.121692
0.113487
0.125188
0.138964
0.138767
0.138406
0.137637
0.136111
0.133189
0.127988
0.121446
0.13137
0.134465
0.134251
0.133862
0.133041
0.13142
0.128321
0.122815
0.116555
0.134973
0.143281
0.143093
0.142754
0.142049
0.140687
0.138166
0.13389
0.129138
0.144005
0.153004
0.160964
0.152784
0.143128
0.151342
0.144585
0.138893
0.14055
0.13642
0.135106
0.134915
0.137717
0.138548
0.134397
0.132282
0.120188
0.124182
0.130346
0.134281
0.160705
0.128153
0.132101
0.12649
0.122066
0.117224
0.117275
0.11525
0.116238
0.111872
0.109883
0.114077
0.125787
0.119716
0.121608
0.117561
0.115169
0.120241
0.126739
0.163731
0.165829
0.172726
0.144891
0.135909
0.135373
0.131242
0.128488
0.124384
0.126077
0.130684
0.133184
0.140618
0.141862
0.138387
0.136125
0.118743
0.120215
0.129306
0.150868
0.134243
0.123823
0.125819
0.124196
0.122559
0.119971
0.121138
0.117543
0.120762
0.113761
0.112522
0.118193
0.129554
0.123222
0.123263
0.117505
0.112603
0.116443
0.187652
0.157551
0.149491
0.15294
0.141215
0.126844
0.12575
0.11932
0.119571
0.114622
0.12261
0.130095
0.138327
0.145904
0.14356
0.139349
0.132121
0.116063
0.123374
0.146641
0.14446
0.133536
0.118012
0.120305
0.124411
0.12234
0.117982
0.122134
0.112223
0.122698
0.115802
0.113668
0.122175
0.131299
0.123189
0.11951
0.11527
0.112016
0.1789
0.174141
0.142647
0.129134
0.137789
0.13642
0.126204
0.13373
0.123384
0.121223
0.118458
0.128315
0.134874
0.139585
0.139739
0.151996
0.135833
0.131094
0.122309
0.14395
0.142413
0.136974
0.121577
0.114214
0.112065
0.126755
0.120863
0.11717
0.119105
0.124712
0.121898
0.142095
0.122144
0.123187
0.127882
0.121682
0.1201
0.116646
0.167472
0.160261
0.162561
0.128068
0.116155
0.144856
0.139022
0.139798
0.153102
0.138616
0.133396
0.125919
0.127581
0.130061
0.139749
0.138369
0.147824
0.138962
0.139837
0.14479
0.132343
0.124793
0.142293
0.123188
0.105224
0.100534
0.126634
0.128954
0.118431
0.11558
0.12162
0.135414
0.121906
0.121177
0.125136
0.127332
0.123322
0.121146
0.159593
0.152356
0.153757
0.14801
0.130055
0.136212
0.158963
0.148622
0.14436
0.160328
0.146817
0.137461
0.129886
0.125609
0.140325
0.141634
0.14144
0.148026
0.15091
0.148576
0.142594
0.126763
0.125722
0.130505
0.123317
0.115778
0.105733
0.127095
0.143773
0.131128
0.131308
0.12961
0.138971
0.141849
0.113129
0.116457
0.127929
0.131447
0.174405
0.157029
0.160308
0.160826
0.166142
0.136133
0.136989
0.162247
0.168899
0.147406
0.155012
0.147844
0.13591
0.122098
0.126611
0.147173
0.145013
0.155754
0.165087
0.145857
0.140074
0.135624
0.127834
0.119482
0.109849
0.135339
0.12099
0.12281
0.138673
0.153262
0.132902
0.132187
0.125982
0.13507
0.133775
0.113223
0.126115
0.134225
0.184286
0.174455
0.16402
0.157101
0.165289
0.156268
0.133516
0.139542
0.160624
0.156541
0.15045
0.157057
0.139631
0.115853
0.123265
0.134236
0.146923
0.15547
0.165239
0.150862
0.143477
0.138935
0.133733
0.128954
0.119799
0.119267
0.152646
0.133429
0.126729
0.137258
0.147111
0.129701
0.134397
0.119101
0.124211
0.122634
0.122766
0.136961
0.191117
0.176688
0.165831
0.150565
0.152084
0.161961
0.148056
0.134486
0.144982
0.161631
0.153935
0.147826
0.147598
0.131115
0.133376
0.142714
0.149047
0.153258
0.148668
0.156676
0.149924
0.140424
0.108185
0.142652
0.133876
0.135847
0.137592
0.158589
0.131377
0.12921
0.153456
0.143054
0.135997
0.125084
0.12589
0.123692
0.134087
0.142816
0.185767
0.179678
0.169938
0.157257
0.14544
0.153951
0.160526
0.162439
0.14126
0.140966
0.1542
0.144781
0.14323
0.146146
0.142871
0.147034
0.148951
0.144429
0.148484
0.162914
0.153778
0.150379
0.14961
0.121856
0.155739
0.1421
0.143011
0.133871
0.153173
0.106799
0.128022
0.133717
0.139851
0.136942
0.130634
0.135221
0.142604
0.152644
0.190472
0.182775
0.172153
0.151926
0.155189
0.159014
0.162178
0.162169
0.161713
0.107117
0.138251
0.16061
0.153239
0.151075
0.146459
0.144865
0.143595
0.144898
0.14979
0.16818
0.164133
0.158216
0.131014
0.16612
0.155343
0.150372
0.140334
0.158327
0.121325
0.144746
0.125383
0.12626
0.142394
0.140657
0.141278
0.142921
0.148175
0.146953
0.215643
0.201173
0.183655
0.168971
0.164076
0.167005
0.155002
0.149558
0.168273
0.161224
0.106481
0.150487
0.171241
0.150688
0.144628
0.141443
0.141909
0.147204
0.148883
0.177562
0.173585
0.170123
0.171991
0.164336
0.154118
0.130308
0.154084
0.119228
0.148308
0.124743
0.13785
0.124661
0.128765
0.149433
0.148278
0.145827
0.143648
0.139731
0.230487
0.219326
0.20693
0.19095
0.181579
0.164221
0.164102
0.148112
0.144928
0.171042
0.165958
0.150566
0.159791
0.161922
0.152451
0.144552
0.146183
0.147925
0.149994
0.183877
0.182828
0.180426
0.174284
0.163879
0.141889
0.199149
0.130836
0.175794
0.136638
0.139423
0.140588
0.13766
0.131265
0.144074
0.145987
0.143813
0.137179
0.138104
0.233692
0.227798
0.222465
0.215143
0.197076
0.184442
0.160705
0.158724
0.148301
0.151173
0.180324
0.172052
0.167723
0.163887
0.160505
0.160601
0.148952
0.152278
0.150042
0.191186
0.192453
0.185229
0.175938
0.158272
0.224138
0.139415
0.18716
0.13304
0.158992
0.135444
0.127682
0.141531
0.152899
0.143548
0.140784
0.137746
0.137816
0.131383
0.238458
0.233921
0.231061
0.224166
0.222717
0.195412
0.177853
0.160868
0.164802
0.1651
0.16891
0.18128
0.189194
0.166839
0.151982
0.166729
0.167213
0.150013
0.145806
0.203076
0.196666
0.190238
0.184816
0.249358
0.153492
0.211133
0.142738
0.173159
0.144302
0.141477
0.13497
0.138861
0.157144
0.150046
0.137244
0.132637
0.130225
0.133916
0.241632
0.241183
0.231487
0.216479
0.198728
0.216644
0.191838
0.179692
0.175686
0.178918
0.18104
0.183044
0.197957
0.180564
0.160104
0.155269
0.167791
0.164857
0.149886
0.206612
0.203835
0.194741
0.152569
0.177831
0.239191
0.159353
0.197283
0.151878
0.147167
0.150309
0.146088
0.142843
0.145485
0.163411
0.145178
0.126144
0.125737
0.127101
0.244797
0.241233
0.22841
0.259925
0.217169
0.198201
0.220566
0.193417
0.189585
0.191635
0.188262
0.190466
0.191947
0.210864
0.184312
0.160431
0.15281
0.168434
0.151454
0.211373
0.203667
0.201521
0.228903
0.150239
0.173879
0.230749
0.167976
0.181565
0.156683
0.155141
0.156507
0.15814
0.151052
0.150111
0.147763
0.136487
0.123263
0.129538
0.241388
0.235898
0.233327
0.224059
0.219271
0.213144
0.224191
0.205303
0.200039
0.198458
0.195439
0.199307
0.210564
0.189739
0.180366
0.18455
0.160226
0.155124
0.176352
0.208748
0.205463
0.200098
0.200522
0.199392
0.142788
0.197469
0.176547
0.174495
0.162814
0.168012
0.165956
0.162823
0.160083
0.147101
0.142852
0.142516
0.138351
0.128413
0.240753
0.201799
0.236828
0.231911
0.217134
0.225346
0.211723
0.226319
0.210693
0.208022
0.207385
0.207693
0.222514
0.190969
0.184492
0.185642
0.183615
0.157265
0.144374
0.201866
0.188144
0.199146
0.202633
0.158825
0.199855
0.13541
0.197759
0.177973
0.178296
0.176324
0.17078
0.166391
0.162041
0.153858
0.143822
0.145722
0.145761
0.14422
0.127131
0.18001
0.223484
0.232674
0.25308
0.272325
0.267461
0.28247
0.287556
0.277133
0.255044
0.246341
0.232417
0.214636
0.20491
0.19938
0.17572
0.161562
0.157421
0.200132
0.160806
0.188836
0.184124
0.190584
0.198332
0.188749
0.206287
0.206524
0.195686
0.190642
0.185031
0.182341
0.183134
0.182535
0.175369
0.17172
0.154251
0.145305
0.115901
0.166695
0.190987
0.215506
0.230892
0.245147
0.238965
0.246435
0.249507
0.254189
0.241118
0.238731
0.221562
0.235304
0.23722
0.231423
0.205484
0.189104
0.180552
0.16688
0.161575
0.165335
0.170448
0.183261
0.17713
0.185374
0.183615
0.199512
0.199958
0.19525
0.175488
0.165999
0.163125
0.172156
0.150167
0.163688
0.158634
0.152012
0.130617
0.160245
0.188671
0.201659
0.213716
0.228681
0.229517
0.237323
0.24882
0.239051
0.230738
0.220543
0.216902
0.225349
0.244241
0.217295
0.203952
0.202301
0.18168
0.195676
0.144099
0.155714
0.160495
0.166114
0.182469
0.172883
0.172536
0.180357
0.174762
0.179148
0.172428
0.173582
0.182991
0.171592
0.18164
0.18487
0.158513
0.155879
0.0951142
0.130047
0.172894
0.183669
0.206072
0.217801
0.225689
0.21696
0.223925
0.224804
0.214871
0.225316
0.213609
0.226702
0.240778
0.223848
0.211479
0.212579
0.193145
0.130957
0.133648
0.147846
0.158827
0.176773
0.167206
0.179117
0.174151
0.16677
0.172958
0.172706
0.179191
0.171108
0.198015
0.173199
0.187791
0.166997
0.160265
0.163754
0.125198
0.160048
0.18124
0.189474
0.202671
0.204913
0.198751
0.201767
0.208705
0.209794
0.223193
0.222531
0.223343
0.230731
0.240254
0.229304
0.229049
0.22522
0.189035
0.148362
0.14179
0.151637
0.164182
0.174799
0.164723
0.161172
0.169367
0.168786
0.180953
0.161309
0.173446
0.182152
0.171334
0.180299
0.184679
0.177354
0.178318
0.154732
0.108932
0.161323
0.194563
0.205647
0.216968
0.196813
0.203735
0.214797
0.214868
0.211539
0.203535
0.224256
0.217727
0.218246
0.221425
0.226651
0.241503
0.219084
0.187948
0.128446
0.16265
0.157808
0.166648
0.165346
0.169278
0.169708
0.167656
0.159164
0.168196
0.169329
0.175965
0.17503
0.163779
0.17083
0.186014
0.185861
0.174137
0.15778
0.129435
0.136675
0.193792
0.190128
0.203727
0.20428
0.213852
0.210237
0.207624
0.203961
0.221324
0.215173
0.214214
0.221585
0.235195
0.249924
0.236507
0.209846
0.184722
0.146909
0.142523
0.166479
0.164234
0.16358
0.169795
0.166731
0.158915
0.159671
0.164594
0.184455
0.166294
0.183273
0.170487
0.179204
0.192684
0.187494
0.171612
0.161251
0.121226
0.202738
0.216661
0.196091
0.245056
0.210374
0.214041
0.207748
0.210485
0.20291
0.215326
0.204718
0.21164
0.224866
0.241734
0.243589
0.22745
0.196998
0.18973
0.151111
0.167189
0.17733
0.162473
0.162028
0.178536
0.19152
0.178154
0.158011
0.170071
0.166012
0.162548
0.170609
0.175736
0.192512
0.190739
0.167282
0.169514
0.158738
0.165183
0.197701
0.218656
0.227556
0.240268
0.230414
0.208681
0.203941
0.212868
0.205863
0.217314
0.208176
0.22051
0.212397
0.232916
0.232179
0.211836
0.191485
0.194124
0.153641
0.153891
0.165535
0.180973
0.164075
0.162799
0.169867
0.177524
0.16603
0.171462
0.173307
0.164842
0.174418
0.178505
0.187544
0.17434
0.163256
0.164774
0.159623
0.173724
0.260473
0.270768
0.227117
0.2438
0.240594
0.213888
0.228772
0.213725
0.204426
0.214349
0.227045
0.226211
0.210511
0.220792
0.217849
0.191482
0.194121
0.196924
0.18191
0.176753
0.183849
0.194033
0.188006
0.182133
0.182305
0.183927
0.173641
0.186259
0.185005
0.167752
0.180485
0.182591
0.181891
0.168803
0.165636
0.168431
0.169343
0.146424
0.25444
0.226211
0.264688
0.257218
0.245976
0.262043
0.23617
0.221066
0.222123
0.223318
0.224936
0.22755
0.205715
0.21808
0.223021
0.208607
0.215681
0.205804
0.173932
0.201855
0.177834
0.191214
0.174502
0.175191
0.199579
0.185932
0.183006
0.186959
0.180295
0.176629
0.174062
0.183535
0.180987
0.164487
0.17375
0.178663
0.17644
0.19326
0.265478
0.29086
0.282713
0.286537
0.261187
0.26328
0.233074
0.241307
0.227441
0.22222
0.222914
0.23763
0.23277
0.239443
0.228778
0.232598
0.239302
0.232136
0.209983
0.197363
0.207362
0.205157
0.199035
0.204894
0.195727
0.184034
0.203225
0.184696
0.197139
0.189197
0.174682
0.18067
0.182891
0.174211
0.180869
0.184834
0.177239
0.153088
0.250374
0.319142
0.291054
0.257467
0.282271
0.272507
0.260114
0.275343
0.234604
0.241657
0.236752
0.254355
0.237316
0.237257
0.236125
0.227976
0.239583
0.244779
0.190254
0.179767
0.222418
0.214222
0.20124
0.186315
0.18726
0.225467
0.203283
0.206207
0.200092
0.183365
0.181557
0.187547
0.185497
0.176141
0.185787
0.18684
0.211129
0.204564
0.289404
0.315008
0.294176
0.344601
0.32245
0.273511
0.289246
0.25776
0.249507
0.252341
0.252916
0.249874
0.239974
0.236089
0.242676
0.223083
0.238212
0.240781
0.231034
0.221278
0.238723
0.222408
0.212645
0.211593
0.222383
0.207177
0.213583
0.222692
0.232737
0.188304
0.214662
0.196002
0.188298
0.189312
0.18908
0.188297
0.195264
0.228497
0.299899
0.318337
0.316861
0.282712
0.287515
0.309668
0.284643
0.253333
0.260093
0.26157
0.25399
0.250821
0.240812
0.234077
0.233001
0.232747
0.236761
0.239478
0.212654
0.212125
0.215989
0.218716
0.219336
0.215861
0.219283
0.220629
0.229879
0.231791
0.240502
0.203483
0.209309
0.218554
0.193475
0.195116
0.190193
0.197104
0.198317
0.168647
0.298904
0.343102
0.336242
0.347448
0.292837
0.267645
0.272949
0.26891
0.270931
0.267972
0.26155
0.259317
0.257028
0.236176
0.23419
0.233245
0.240827
0.242364
0.210909
0.195353
0.241262
0.246915
0.224168
0.224599
0.259394
0.225971
0.244202
0.250438
0.223797
0.22246
0.202892
0.220857
0.224512
0.196241
0.202101
0.199284
0.211121
0.201088
0.300971
0.300278
0.327312
0.339206
0.301261
0.298261
0.286025
0.306086
0.271203
0.273907
0.26646
0.260259
0.264118
0.248364
0.234343
0.25966
0.23855
0.240422
0.281171
0.246043
0.272968
0.260892
0.254217
0.248846
0.238568
0.259623
0.256284
0.232165
0.230714
0.23025
0.218263
0.211831
0.231233
0.203726
0.205319
0.207335
0.211494
0.366124
0.289216
0.32074
0.284199
0.257635
0.283943
0.298299
0.280921
0.267582
0.278066
0.274587
0.273215
0.259412
0.251781
0.260856
0.236539
0.236539
0.250611
0.241494
0.290643
0.297317
0.244502
0.284063
0.291985
0.259113
0.261446
0.266596
0.246501
0.240642
0.243436
0.225905
0.239555
0.206815
0.223572
0.21962
0.204223
0.214182
0.208961
0.225434
0.282242
0.371642
0.3416
0.316567
0.290089
0.271045
0.262333
0.267305
0.276405
0.266446
0.268103
0.261149
0.253006
0.254692
0.259391
0.23091
0.24546
0.246384
0.336139
0.328574
0.336195
0.294823
0.287046
0.264143
0.249649
0.27213
0.248354
0.267909
0.221538
0.247125
0.219904
0.222273
0.209601
0.227105
0.209792
0.199108
0.203089
0.119045
0.199038
0.233148
0.279784
0.289689
0.293746
0.286597
0.286846
0.275647
0.266455
0.249156
0.240938
0.227163
0.213994
0.204309
0.224051
0.189447
0.167171
0.181689
0.196495
0.25994
0.313135
0.31031
0.294959
0.317646
0.300391
0.262361
0.25766
0.243498
0.229947
0.217324
0.212979
0.177881
0.180144
0.185782
0.180699
0.161104
0.168155
0.18279
0.245952
0.303053
0.312716
0.291554
0.301877
0.273124
0.245055
0.234741
0.208376
0.204503
0.209523
0.182228
0.179909
0.183593
0.182865
0.163416
0.162795
0.157754
0.182045
0.261864
0.285985
0.324841
0.313473
0.281161
0.260343
0.215564
0.208768
0.197722
0.185638
0.181368
0.180306
0.171732
0.158658
0.159952
0.148766
0.160453
0.156271
0.223805
0.293598
0.29654
0.303532
0.292031
0.240475
0.225813
0.197117
0.172992
0.176432
0.16687
0.161863
0.162141
0.147139
0.14915
0.145081
0.135121
0.146371
0.150569
0.222435
0.3133
0.334215
0.329171
0.292929
0.254431
0.202674
0.185001
0.14968
0.163958
0.169653
0.162749
0.153868
0.143494
0.15269
0.139421
0.130441
0.141683
0.141122
0.218488
0.341678
0.352108
0.331632
0.277592
0.22424
0.193498
0.156098
0.14434
0.15359
0.153453
0.153498
0.144157
0.15255
0.147475
0.134725
0.132349
0.142619
0.141098
0.298821
0.344618
0.378542
0.313843
0.28516
0.221272
0.175386
0.154104
0.145281
0.152485
0.155322
0.153897
0.147888
0.145859
0.153159
0.132286
0.136697
0.140102
0.145334
0.22907
0.308608
0.344125
0.301984
0.260107
0.197761
0.191723
0.159392
0.154655
0.159844
0.165637
0.16232
0.166373
0.147381
0.149558
0.138226
0.140269
0.133135
0.140958
0.245021
0.344022
0.358313
0.295595
0.275388
0.229833
0.182592
0.178898
0.174392
0.172354
0.178034
0.154529
0.167799
0.140297
0.131193
0.136363
0.139697
0.133206
0.137841
0.217361
0.302403
0.32708
0.288488
0.265424
0.218784
0.193772
0.19078
0.171402
0.177638
0.179263
0.148535
0.137231
0.13465
0.130491
0.132579
0.138746
0.135227
0.134461
0.23068
0.286773
0.324116
0.295522
0.247043
0.226932
0.208077
0.18601
0.161227
0.150721
0.149797
0.143491
0.125932
0.130394
0.128511
0.131898
0.131357
0.118285
0.132815
0.166124
0.251053
0.276862
0.264475
0.234003
0.199119
0.184387
0.164379
0.146825
0.133228
0.131338
0.140369
0.131865
0.121521
0.134184
0.132232
0.125806
0.116581
0.120889
0.201643
0.233248
0.244724
0.257596
0.228091
0.20397
0.178042
0.149944
0.137626
0.133802
0.130731
0.11923
0.138179
0.123941
0.118209
0.12392
0.120576
0.117494
0.125133
0.169423
0.1721
0.245063
0.247376
0.238017
0.199605
0.174813
0.166798
0.149199
0.13433
0.133916
0.131616
0.126475
0.133395
0.125229
0.117032
0.129448
0.123628
0.112468
0.11588
0.245873
0.27884
0.241874
0.215129
0.21815
0.179337
0.157572
0.149691
0.137123
0.123272
0.134745
0.132142
0.113969
0.128609
0.114821
0.127819
0.133947
0.122831
0.167229
0.201376
0.235232
0.249093
0.221378
0.200579
0.19248
0.170379
0.145566
0.137684
0.127441
0.120095
0.132389
0.126208
0.116187
0.125679
0.112712
0.134446
0.133473
0.173219
0.248116
0.264522
0.244795
0.222589
0.206008
0.181359
0.170993
0.146772
0.136223
0.134993
0.121737
0.13112
0.132209
0.114409
0.128635
0.121421
0.119252
0.133146
0.167295
0.229517
0.252891
0.242523
0.220386
0.209274
0.176191
0.166379
0.152181
0.132351
0.135162
0.125895
0.122924
0.132183
0.125792
0.110674
0.127545
0.113113
0.126435
0.176428
0.185745
0.197448
0.206383
0.225116
0.21507
0.219044
0.233502
0.217868
0.19879
0.195848
0.181651
0.164917
0.171851
0.16269
0.139898
0.137468
0.139936
0.135862
0.243868
0.230276
0.258984
0.233999
0.228467
0.243968
0.216706
0.218526
0.19211
0.189132
0.181028
0.167991
0.156883
0.171616
0.170109
0.162923
0.144841
0.138929
0.130454
0.235997
0.258116
0.251285
0.244822
0.219235
0.219649
0.196167
0.193187
0.174149
0.169973
0.174485
0.156728
0.152533
0.157706
0.143142
0.143128
0.137867
0.137024
0.150868
0.272932
0.216873
0.245093
0.263969
0.224561
0.220236
0.203788
0.183355
0.165546
0.152968
0.164222
0.144742
0.147698
0.142201
0.147637
0.132212
0.12497
0.133121
0.126213
0.309146
0.239141
0.277028
0.247891
0.211328
0.200386
0.166291
0.162365
0.150796
0.147898
0.13857
0.154583
0.134913
0.122854
0.140888
0.120039
0.121541
0.125757
0.127859
0.202576
0.302154
0.288669
0.249932
0.235688
0.19907
0.162772
0.150497
0.144609
0.139421
0.138025
0.138396
0.128363
0.120024
0.133452
0.126935
0.118661
0.127649
0.121114
0.320162
0.313405
0.274234
0.283409
0.233996
0.195911
0.170869
0.155418
0.138912
0.137881
0.14417
0.143182
0.135248
0.122849
0.142262
0.125115
0.113216
0.117668
0.11296
0.314099
0.275583
0.319321
0.270316
0.229662
0.203378
0.182675
0.153507
0.150859
0.131828
0.140968
0.133841
0.138183
0.122123
0.128792
0.115043
0.116639
0.120076
0.11041
0.317755
0.284754
0.341609
0.256549
0.223957
0.177082
0.184387
0.175495
0.152294
0.144382
0.148486
0.143934
0.145542
0.123328
0.121782
0.111256
0.119771
0.110798
0.111158
0.297074
0.259519
0.318909
0.272157
0.23378
0.21309
0.195544
0.177819
0.160855
0.164909
0.146882
0.125129
0.1233
0.12339
0.107885
0.116166
0.120794
0.116224
0.111044
0.26899
0.269697
0.306851
0.225676
0.2222
0.211198
0.167601
0.173259
0.154157
0.146941
0.12885
0.107937
0.09854
0.111526
0.113231
0.105964
0.120454
0.120871
0.113623
0.228829
0.286991
0.259883
0.252209
0.198515
0.199374
0.176054
0.154109
0.142709
0.112983
0.108775
0.124131
0.108033
0.112471
0.112269
0.0948578
0.10683
0.116107
0.118214
0.249039
0.218609
0.209839
0.197359
0.178184
0.170103
0.143948
0.144
0.13092
0.116425
0.101633
0.117921
0.117163
0.107777
0.118334
0.11589
0.105858
0.108714
0.118867
0.237973
0.207557
0.206924
0.201097
0.182926
0.168217
0.160833
0.132387
0.118188
0.125175
0.127773
0.097284
0.120927
0.103069
0.107714
0.121096
0.117605
0.105938
0.114149
0.207777
0.166204
0.1867
0.195845
0.188746
0.168666
0.158276
0.145102
0.13036
0.113634
0.120801
0.12667
0.114764
0.122242
0.117472
0.110798
0.122126
0.116531
0.113313
0.193039
0.178756
0.202076
0.199951
0.197589
0.186954
0.163358
0.15176
0.144485
0.127144
0.111657
0.120706
0.110606
0.118082
0.128007
0.107613
0.11453
0.128371
0.118253
0.194205
0.234673
0.223488
0.21438
0.198003
0.179714
0.173205
0.148448
0.136844
0.138274
0.131411
0.114643
0.124443
0.115226
0.12141
0.126926
0.112621
0.123451
0.128062
0.214847
0.19359
0.234037
0.225287
0.207198
0.168881
0.168883
0.168726
0.147047
0.135509
0.136188
0.118592
0.124042
0.119384
0.118354
0.12936
0.113709
0.118439
0.130791
0.218983
0.184828
0.222695
0.242081
0.206908
0.180736
0.167541
0.164384
0.166591
0.132866
0.135585
0.131547
0.11979
0.126436
0.118879
0.119696
0.128928
0.110443
0.120665
0.134286
0.231028
0.25731
0.23609
0.220965
0.210339
0.173875
0.163076
0.148514
0.128866
0.133652
0.12588
0.123605
0.131115
0.125128
0.108996
0.126491
0.112445
0.125657
0.21385
0.192306
0.216663
0.231951
0.199058
0.1761
0.160678
0.159604
0.160499
0.127998
0.132519
0.127289
0.116706
0.124382
0.116685
0.117155
0.127168
0.109853
0.119665
0.144892
0.242696
0.256378
0.250604
0.224775
0.20848
0.18102
0.167084
0.145192
0.140942
0.139372
0.121763
0.14232
0.13347
0.112289
0.130352
0.1233
0.119448
0.133224
0.192269
0.194199
0.237882
0.220996
0.196331
0.167529
0.167353
0.162487
0.144641
0.127295
0.135688
0.110341
0.121569
0.114747
0.113958
0.125746
0.108415
0.111245
0.121706
0.142418
0.245763
0.266862
0.282702
0.233488
0.210171
0.193968
0.183032
0.156662
0.157663
0.144005
0.132734
0.148661
0.138427
0.131197
0.137017
0.120857
0.135236
0.132124
0.184181
0.217531
0.229617
0.215672
0.191316
0.17744
0.171669
0.157305
0.132137
0.137248
0.136993
0.118079
0.124545
0.111644
0.117224
0.122694
0.107011
0.120119
0.11593
0.149865
0.257707
0.292809
0.268943
0.23376
0.215636
0.20343
0.180888
0.158426
0.145607
0.135081
0.148157
0.145774
0.14782
0.150678
0.136125
0.140518
0.141294
0.133226
0.195104
0.205581
0.196974
0.202734
0.195124
0.191334
0.175163
0.149818
0.146147
0.140296
0.12578
0.132021
0.115944
0.12316
0.134416
0.106884
0.115714
0.112721
0.110224
0.133512
0.23692
0.275232
0.288841
0.276344
0.218527
0.193447
0.182018
0.15794
0.139874
0.143779
0.134626
0.144756
0.139002
0.137372
0.138745
0.152584
0.147116
0.135771
0.183828
0.200436
0.208914
0.208734
0.19771
0.181121
0.167069
0.161953
0.147549
0.127762
0.139504
0.131563
0.129635
0.136284
0.123336
0.117112
0.123765
0.107353
0.120155
0.146389
0.24825
0.281509
0.260588
0.259479
0.225665
0.197384
0.170745
0.15993
0.146312
0.136318
0.141379
0.135486
0.13264
0.121423
0.1423
0.152228
0.144359
0.152295
0.182915
0.19294
0.199374
0.199966
0.211862
0.187821
0.169821
0.149109
0.131037
0.131314
0.109399
0.126126
0.130725
0.126292
0.12074
0.12963
0.116996
0.117814
0.12389
0.161286
0.21186
0.283524
0.263534
0.238412
0.198096
0.183997
0.167317
0.149094
0.133459
0.132284
0.139462
0.134926
0.13842
0.136671
0.149875
0.135136
0.141367
0.167698
0.192988
0.190514
0.227196
0.192532
0.193205
0.172393
0.16413
0.1477
0.13959
0.119904
0.117929
0.126359
0.115882
0.121115
0.125964
0.124515
0.133623
0.13255
0.142014
0.103521
0.238077
0.258876
0.253672
0.233703
0.205066
0.185171
0.160548
0.133685
0.135015
0.14017
0.126361
0.122879
0.132918
0.132476
0.134815
0.136153
0.149033
0.166031
0.188411
0.19115
0.212272
0.214207
0.191977
0.160263
0.160129
0.156854
0.121572
0.114415
0.125084
0.127007
0.10402
0.116904
0.127097
0.113357
0.130806
0.150505
0.142368
0.133783
0.208004
0.260898
0.230527
0.210862
0.205641
0.180848
0.174067
0.149217
0.140984
0.134457
0.121345
0.122533
0.130228
0.136898
0.130981
0.140637
0.156386
0.159201
0.217622
0.235347
0.208222
0.200805
0.191863
0.171756
0.1469
0.143048
0.127505
0.126724
0.105281
0.105041
0.114831
0.120162
0.0980842
0.118535
0.12483
0.142588
0.154196
0.21301
0.271914
0.280932
0.226212
0.219807
0.211096
0.200819
0.179229
0.165304
0.146419
0.141388
0.135785
0.13409
0.131522
0.12909
0.132123
0.14254
0.174728
0.159638
0.261823
0.23633
0.303237
0.236832
0.232236
0.208717
0.169603
0.155728
0.146364
0.127856
0.113066
0.120877
0.125822
0.117416
0.105102
0.119554
0.113272
0.130902
0.148906
0.150187
0.238507
0.269687
0.233015
0.234964
0.195571
0.178135
0.171906
0.162622
0.149064
0.148438
0.147155
0.14204
0.138729
0.125209
0.135388
0.141953
0.168953
0.156979
0.262025
0.25939
0.312746
0.24189
0.232773
0.186912
0.175203
0.163258
0.149012
0.137702
0.130703
0.143339
0.118768
0.120806
0.111563
0.121805
0.115841
0.11856
0.14151
0.1663