/*--------------------------------*- C++ -*----------------------------------*\
| =========                 |                                                 |
| \\      /  F ield         | foam-extend: Open Source CFD                    |
|  \\    /   O peration     | Version:     3.1                                |
|   \\  /    A nd           | Web:         http://www.extend-project.de       |
|    \\/     M anipulation  |                                                 |
\*---------------------------------------------------------------------------*/
FoamFile
{
    version     2.0;
    format      ascii;
    class       surfaceScalarField;
    location    "172800";
    object      meshPhi;
}
// * * * * * * * * * * * * * * * * * * * * * * * * * * * * * * * * * * * * * //

dimensions      [0 3 -1 0 0 0 0];

internalField   nonuniform List<scalar> 
58146
(
5.45961e-20
-1.37827e-19
2.03432e-17
2.2208e-22
5.24041e-20
5.61267e-21
-1.39333e-19
2.03424e-17
-1.32347e-20
5.27318e-20
2.10782e-20
-1.4013e-19
2.03491e-17
-3.41374e-20
5.70451e-20
4.79474e-20
-1.42834e-19
2.03633e-17
-7.48652e-20
6.54923e-20
-1.45043e-19
2.03997e-17
-1.71732e-19
1.08129e-19
6.6369e-20
2.4641e-19
-1.49928e-19
2.04883e-17
-3.85132e-19
7.66194e-20
5.46119e-19
-1.62225e-19
2.0707e-17
-8.7519e-19
1.048e-19
-1.75029e-19
2.11381e-17
-2.00559e-18
1.29303e-18
1.59775e-19
3.0006e-18
-2.50955e-19
2.29491e-17
-4.32583e-18
-3.01426e-20
-2.11536e-19
4.03405e-21
2.20092e-17
-2.11633e-17
-3.00271e-20
-6.79509e-21
-2.11375e-19
1.42619e-20
2.20076e-17
-2.11675e-17
-2.87717e-20
-2.22387e-20
-2.1142e-19
3.45878e-20
2.20138e-17
-2.11792e-17
-2.48444e-20
-2.15476e-19
7.55597e-20
2.20259e-17
-4.97475e-20
-2.12037e-17
-3.5283e-20
-1.07749e-19
-2.12276e-19
1.66181e-19
2.20671e-17
-2.12675e-17
-4.05703e-20
-2.36732e-19
-2.07991e-19
3.61143e-19
2.21532e-17
-2.14102e-17
-4.89257e-20
-5.12906e-19
-2.01345e-19
7.70901e-19
2.23777e-17
-2.17451e-17
-5.71581e-20
-2.12235e-19
1.64724e-18
2.28732e-17
-1.08335e-18
-2.24673e-17
-1.1858e-19
-2.51682e-18
-1.81414e-19
3.49077e-18
2.43646e-17
-2.41385e-17
5.06342e-19
2.1271e-17
2.26548e-23
-8.43019e-19
5.05735e-19
6.05977e-21
2.12706e-17
-1.44109e-20
-8.42834e-19
5.06736e-19
2.34184e-20
2.1278e-17
-3.83502e-20
-8.43889e-19
5.09048e-19
5.52144e-20
2.12966e-17
-8.65841e-20
-8.45606e-19
5.11232e-19
2.13344e-17
-1.90628e-19
-8.5454e-19
1.22396e-19
5.17183e-19
2.71977e-19
2.14322e-17
-4.26658e-19
-8.5826e-19
5.28996e-19
6.08612e-19
2.16762e-17
-9.83885e-19
-8.72773e-19
2.21472e-17
-2.27234e-18
-9.35855e-19
5.3712e-19
1.45969e-18
3.40339e-18
2.41656e-17
-4.97349e-18
-1.05699e-18
6.38524e-19
4.55588e-19
4.19759e-21
2.28833e-17
-6.26046e-19
-2.21328e-17
4.55313e-19
-7.21384e-21
1.54738e-20
2.2882e-17
-6.26237e-19
-2.21373e-17
4.5495e-19
-2.45033e-20
3.91971e-20
2.28904e-17
-6.26743e-19
-2.21506e-17
4.56315e-19
8.52607e-20
2.29052e-17
-6.28111e-19
-5.60912e-20
-2.21786e-17
4.54648e-19
-1.20931e-19
1.83954e-19
2.29478e-17
-6.28524e-19
-2.22495e-17
4.51952e-19
-2.60066e-19
3.9681e-19
2.30426e-17
-6.27667e-19
-2.24077e-17
4.49027e-19
-5.65302e-19
8.5385e-19
2.32931e-17
-6.29356e-19
-2.27831e-17
4.56449e-19
1.84499e-18
2.38369e-17
-6.40436e-19
-1.20646e-18
-2.36101e-17
4.42992e-19
-2.80712e-18
3.87375e-18
2.56337e-17
-6.69407e-19
-2.55765e-17
2.23106e-17
-6.14944e-22
-1.3974e-18
1.07308e-18
7.12226e-21
2.23103e-17
-1.6382e-20
-1.39748e-18
1.07108e-18
2.65236e-20
2.23186e-17
-4.32818e-20
-1.39849e-18
1.07212e-18
6.24398e-20
2.23375e-17
-9.71639e-20
-1.39983e-18
1.0721e-18
2.23834e-17
-2.15487e-19
-1.40465e-18
1.39211e-19
1.077e-18
3.06584e-19
2.24906e-17
-4.77944e-19
-1.41167e-18
1.08256e-18
6.84656e-19
2.27613e-17
-1.09142e-18
-1.42596e-18
1.09668e-18
1.15636e-18
2.33234e-17
-2.51629e-18
-1.4358e-18
1.61155e-18
1.29689e-18
3.75142e-18
2.55324e-17
-5.4551e-18
-1.58066e-18
4.89362e-21
2.40241e-17
-1.11199e-18
8.68103e-19
-2.31755e-17
-8.28822e-21
1.72486e-20
2.40228e-17
-1.11185e-18
8.67645e-19
-2.31798e-17
-2.70571e-20
4.19107e-20
2.40318e-17
-1.11275e-18
8.69329e-19
-2.31947e-17
9.31069e-20
2.40501e-17
-1.11825e-18
-6.08494e-20
8.72221e-19
-2.32263e-17
-1.32107e-19
1.99944e-19
2.40968e-17
-1.11898e-18
8.72452e-19
-2.33044e-17
-2.83393e-19
4.30247e-19
2.42025e-17
-1.12174e-18
8.73589e-19
-2.34783e-17
-6.14823e-19
9.23233e-19
2.44763e-17
-1.13324e-18
8.81756e-19
-2.38865e-17
2.00038e-18
2.5091e-17
-1.17738e-18
9.06496e-19
-1.31368e-18
-2.47934e-17
-3.02473e-18
4.14055e-18
2.70561e-17
-1.26204e-18
9.72781e-19
-2.69485e-17
1.64298e-18
2.32423e-17
-1.306e-21
-1.85738e-18
1.64281e-18
8.49383e-21
2.32429e-17
-1.85131e-20
-1.85619e-18
1.64385e-18
2.96021e-20
2.32526e-17
-4.80746e-20
-1.85741e-18
1.64619e-18
6.89345e-20
2.32751e-17
-1.07344e-19
-1.85906e-18
1.64879e-18
2.3322e-17
-2.35178e-19
-1.86643e-18
1.51788e-19
1.65681e-18
3.36124e-19
2.34418e-17
-5.24773e-19
-1.87273e-18
1.66933e-18
7.50997e-19
2.37425e-17
-1.21527e-18
-1.89453e-18
2.43149e-17
-2.82721e-18
-1.99073e-18
1.64768e-18
1.81986e-18
4.25034e-18
2.6729e-17
-6.28956e-18
-2.14324e-18
1.79976e-18
1.36496e-18
5.09704e-21
2.50429e-17
-1.67635e-18
-2.40959e-17
1.36487e-18
-9.20156e-21
1.91407e-20
2.50425e-17
-1.677e-18
-2.41004e-17
1.36565e-18
-3.00455e-20
4.80651e-20
2.50506e-17
-1.67705e-18
-2.41165e-17
1.37275e-18
1.0336e-19
2.50608e-17
-1.67611e-18
-6.80301e-20
-2.41506e-17
1.37458e-18
-1.45999e-19
2.20768e-19
2.51108e-17
-1.67848e-18
-2.42355e-17
1.37877e-18
-3.12114e-19
4.73202e-19
2.52273e-17
-1.68486e-18
-2.44261e-17
1.39304e-18
-6.74849e-19
1.01442e-18
2.55333e-17
-1.70726e-18
-2.48763e-17
1.44813e-18
2.22356e-18
2.6201e-17
-1.76498e-18
-1.45177e-18
-2.59011e-17
1.53707e-18
-3.36005e-18
4.61871e-18
2.83136e-17
-1.85874e-18
-2.82566e-17
2.42952e-17
-3.36989e-21
-2.51264e-18
2.04452e-18
1.07407e-20
2.42962e-17
-2.17092e-20
-2.51277e-18
2.04001e-18
3.40773e-20
2.43067e-17
-5.43774e-20
-2.51405e-18
2.04115e-18
7.84694e-20
2.43309e-17
-1.21207e-19
-2.5153e-18
2.04024e-18
2.43876e-17
-2.69003e-19
-2.52305e-18
1.74986e-19
2.0448e-18
3.85565e-19
2.4519e-17
-5.96101e-19
-2.5348e-18
2.05418e-18
8.61307e-19
2.48519e-17
-1.36027e-18
-2.55855e-18
2.07772e-18
2.20243e-18
2.55779e-17
-3.16436e-18
-2.5727e-18
2.016e-18
2.37725e-18
4.74798e-18
2.82961e-17
-7.00046e-18
-2.72079e-18
6.17617e-21
2.60663e-17
-2.14544e-18
1.95102e-18
-2.52115e-17
-1.1137e-20
2.14766e-20
2.60668e-17
-2.14528e-18
1.95026e-18
-2.52149e-17
-3.28971e-20
5.09155e-20
2.60783e-17
-2.1459e-18
1.95058e-18
-2.52329e-17
-7.29653e-20
1.10602e-19
2.61094e-17
-2.14715e-18
1.94455e-18
-2.52746e-17
-1.57353e-19
2.36502e-19
2.61689e-17
-2.15146e-18
1.94735e-18
-2.53697e-17
-3.3632e-19
5.06968e-19
2.62991e-17
-2.16174e-18
1.9554e-18
-2.55784e-17
-7.28032e-19
1.08075e-18
2.6636e-17
-2.19405e-18
1.98572e-18
-2.60671e-17
2.3519e-18
2.7369e-17
-2.294e-18
2.06299e-18
-1.5403e-18
-2.71589e-17
-3.56347e-18
4.97369e-18
2.96472e-17
-2.38774e-18
2.14191e-18
-2.97665e-17
2.68435e-18
2.52608e-17
-4.48781e-21
-2.80304e-18
2.68528e-18
1.31673e-20
2.52626e-17
-2.51379e-20
-2.80192e-18
2.68648e-18
3.87306e-20
2.52742e-17
-6.12177e-20
-2.80311e-18
2.68856e-18
8.76216e-20
2.53027e-17
-1.37211e-19
-2.80609e-18
2.69154e-18
2.53578e-17
-2.95933e-19
-2.82055e-18
1.92342e-19
2.70418e-18
4.26115e-19
2.55048e-17
-6.60121e-19
-2.82546e-18
2.72206e-18
9.53757e-19
2.58805e-17
-1.54166e-18
-2.84972e-18
2.65832e-17
-3.606e-18
-2.97587e-18
2.67675e-18
2.33111e-18
5.45133e-18
2.94084e-17
-8.10124e-18
-3.20602e-18
2.84239e-18
2.39927e-18
6.52056e-21
2.73241e-17
-2.7698e-18
-2.62634e-17
2.39919e-18
-1.25539e-20
2.41397e-20
2.73261e-17
-2.77108e-18
-2.6267e-17
2.40011e-18
-3.68291e-20
5.701e-20
2.73386e-17
-2.77246e-18
-2.62866e-17
2.40242e-18
-8.11056e-20
1.22093e-19
2.73667e-17
-2.77561e-18
-2.63327e-17
2.40813e-18
-1.72938e-19
2.5968e-19
2.74308e-17
-2.78268e-18
-2.64364e-17
2.42069e-18
-3.67707e-19
5.53274e-19
2.75767e-17
-2.79918e-18
-2.66656e-17
2.45615e-18
-7.91357e-19
1.1829e-18
2.79561e-17
-2.84234e-18
-2.72125e-17
2.56667e-18
2.595e-18
2.87915e-17
-2.959e-18
-1.69419e-18
-2.8467e-17
2.7029e-18
-3.90046e-18
5.40525e-18
3.14441e-17
-3.18021e-18
-3.13631e-17
2.66847e-17
-7.0652e-21
-3.80319e-18
3.01006e-18
1.62988e-20
2.66867e-17
-2.96825e-20
-3.80287e-18
3.00123e-18
4.54753e-20
2.66998e-17
-7.07824e-20
-3.80406e-18
3.00246e-18
1.02246e-19
2.67315e-17
-1.56275e-19
-3.80623e-18
3.00463e-18
2.24731e-19
2.6807e-17
-3.43268e-19
-3.80747e-18
3.02965e-18
2.69661e-17
-7.64336e-19
-3.82985e-18
4.99036e-19
3.02418e-18
1.11534e-18
2.73743e-17
-1.73763e-18
-3.86264e-18
3.05006e-18
3.23904e-18
2.83004e-17
-4.03778e-18
-3.88011e-18
2.58177e-18
3.55311e-18
6.09406e-18
3.15245e-17
-9.09302e-18
-4.17785e-18
7.64225e-21
2.84505e-17
-3.14948e-18
3.06372e-18
-2.76525e-17
-1.47565e-20
2.65608e-20
2.8454e-17
-3.14968e-18
3.06315e-18
-2.76553e-17
-4.01305e-20
6.10829e-20
2.84676e-17
-3.15171e-18
3.0647e-18
-2.76766e-17
-8.72902e-20
1.29913e-19
2.84987e-17
-3.15616e-18
3.06839e-18
-2.77264e-17
-1.85047e-19
2.74745e-19
2.85684e-17
-3.16659e-18
3.07781e-18
-2.7837e-17
-3.93859e-19
5.88766e-19
2.87344e-17
-3.18746e-18
3.09768e-18
-2.80944e-17
-8.51794e-19
1.25883e-18
2.9152e-17
-3.24684e-18
3.15131e-18
-2.86854e-17
2.76541e-18
3.00728e-17
-3.41243e-18
-1.82016e-18
3.28726e-18
-3.00233e-17
-4.19639e-18
5.89516e-18
3.28022e-17
-3.7651e-18
3.5798e-18
-3.3143e-17
3.95997e-18
2.79107e-17
-8.30799e-21
-4.03303e-18
3.96624e-18
1.91126e-20
2.79149e-17
-3.26199e-20
-4.02758e-18
3.96788e-18
5.14234e-20
2.79335e-17
-7.88599e-20
-4.01847e-18
3.97069e-18
1.15464e-19
2.797e-17
-1.76231e-19
-4.01546e-18
3.97611e-18
2.52013e-19
2.80517e-17
-3.87736e-19
-4.02315e-18
3.99016e-18
2.82195e-17
-8.55132e-19
-4.05081e-18
5.56128e-19
4.01047e-18
1.24358e-18
2.86824e-17
-1.98431e-18
-4.08155e-18
2.95618e-17
-4.62654e-18
-4.22941e-18
3.95467e-18
3.01589e-18
7.03363e-18
3.29173e-17
-1.0608e-17
-4.57601e-18
4.27705e-18
3.28815e-18
7.95322e-21
3.02327e-17
-3.74408e-18
-2.89758e-17
3.28844e-18
-1.66216e-20
3.01229e-20
3.02385e-17
-3.74698e-18
-2.89798e-17
3.29115e-18
-4.53471e-20
6.89727e-20
3.02542e-17
-3.75131e-18
-2.90029e-17
3.2962e-18
-9.80507e-20
1.45577e-19
3.02898e-17
-3.75789e-18
-2.90583e-17
3.30709e-18
-2.05982e-19
3.05161e-19
3.03706e-17
-3.77079e-18
-2.91828e-17
3.33109e-18
-4.35626e-19
6.49893e-19
3.05577e-17
-3.79953e-18
-2.94657e-17
3.39617e-18
-9.34575e-19
1.3873e-18
3.10269e-17
-3.87436e-18
-3.01261e-17
3.57789e-18
3.06145e-18
3.20646e-17
-4.06006e-18
-2.0104e-18
-3.16552e-17
3.91893e-18
-4.61971e-18
6.47997e-18
3.49175e-17
-4.40924e-18
-3.49874e-17
2.94538e-17
-1.08515e-20
-4.94014e-18
4.12099e-18
2.23012e-20
2.94541e-17
-3.85067e-20
-4.9399e-18
4.10819e-18
2.94607e-17
-9.25462e-20
-4.95573e-18
5.88539e-20
4.08093e-18
1.36691e-19
2.94996e-17
-2.06344e-19
-4.95839e-18
4.07232e-18
2.99218e-19
2.95892e-17
-4.4997e-19
-4.96614e-18
4.07871e-18
6.55254e-19
2.97988e-17
-9.91814e-19
-4.97872e-18
4.12414e-18
1.45481e-18
3.02897e-17
-2.22348e-18
-5.00844e-18
4.16615e-18
4.41233e-18
3.30572e-18
3.14509e-17
-5.13059e-18
-5.02221e-18
4.84291e-18
7.79564e-18
3.52123e-17
-1.1771e-17
-5.40886e-18
8.38325e-21
3.15607e-17
-4.17113e-18
4.07175e-18
-3.06008e-17
-1.70825e-20
2.8992e-20
3.15668e-17
-4.172e-18
4.07119e-18
-3.06052e-17
-4.46945e-20
6.75017e-20
3.15889e-17
-4.17551e-18
4.07665e-18
-3.06389e-17
-9.84687e-20
1.44392e-19
3.16319e-17
-4.18281e-18
4.08355e-18
-3.07019e-17
-2.08412e-19
3.05001e-19
3.17236e-17
-4.19836e-18
4.09735e-18
-3.0836e-17
-4.43078e-19
6.52607e-19
3.1933e-17
-4.23638e-18
4.13011e-18
-3.11371e-17
-9.5791e-19
1.40583e-18
3.24514e-17
-4.33262e-18
4.2146e-18
-3.18412e-17
3.11093e-18
3.3606e-17
-4.5726e-18
-2.06712e-18
4.4191e-18
-3.34425e-17
-4.75124e-18
6.87427e-18
3.652e-17
-4.96958e-18
4.78558e-18
-3.70463e-17
4.72996e-18
3.17578e-17
-1.21483e-20
-4.68234e-18
4.72928e-18
2.67142e-20
3.17627e-17
-4.80577e-20
-4.68108e-18
4.72376e-18
3.17719e-17
-1.08036e-19
-4.69324e-18
6.80485e-20
4.72284e-18
1.59638e-19
3.18206e-17
-2.42079e-19
-4.69464e-18
4.73153e-18
3.49797e-19
3.19248e-17
-5.25809e-19
-4.70464e-18
4.74371e-18
7.60475e-19
3.21508e-17
-1.15759e-18
-4.71813e-18
4.75119e-18
1.6845e-18
3.2723e-17
-2.66351e-18
-4.76186e-18
3.39244e-17
-6.21016e-18
-4.92253e-18
4.67898e-18
4.08968e-18
9.48902e-18
3.82145e-17
-1.44133e-17
-5.39585e-18
5.07526e-18
4.449e-18
9.63024e-21
3.41901e-17
-4.87593e-18
-3.27994e-17
4.4506e-18
-1.97065e-20
3.37871e-20
3.41984e-17
-4.87916e-18
-3.28075e-17
4.45798e-18
-5.24396e-20
7.95143e-20
3.42211e-17
-4.88513e-18
-3.28432e-17
4.46751e-18
-1.15866e-19
1.70043e-19
3.42703e-17
-4.89549e-18
-3.29153e-17
4.48472e-18
-2.44282e-19
3.56605e-19
3.43785e-17
-4.9154e-18
-3.30713e-17
4.52846e-18
-5.13915e-19
7.55331e-19
3.46207e-17
-4.96898e-18
-3.34148e-17
4.63911e-18
-1.10905e-18
1.64902e-18
3.52085e-17
-5.10344e-18
-3.42304e-17
4.89953e-18
3.7063e-18
3.65371e-17
-5.35393e-18
-2.44986e-18
-3.61529e-17
5.30043e-18
-5.65542e-18
8.35509e-18
3.95232e-17
-5.77518e-18
-4.01637e-17
3.35428e-17
-1.3711e-20
-6.21449e-18
4.95827e-18
3.20365e-20
3.3546e-17
-5.72648e-20
-6.21196e-18
4.94471e-18
9.02653e-20
3.35783e-17
-1.37628e-19
-6.20661e-18
4.98422e-18
2.02075e-19
3.36371e-17
-3.0072e-19
-6.20874e-18
4.9972e-18
4.40734e-19
3.3768e-17
-6.58984e-19
-6.22105e-18
5.00748e-18
9.76535e-19
3.41348e-17
-1.48313e-18
-6.24588e-18
4.99313e-18
-4.59425e-18
3.61193e-17
-3.37544e-18
3.7292e-17
3.80697e-17
3.92912e-17
-5.86307e-18
-3.56167e-18
-6.01017e-18
2.37708e-18
6.00453e-19
2.73721e-18
5.46639e-19
-1.78406e-18
-5.3871e-18
-1.52732e-18
7.04912e-18
6.61525e-18
7.01486e-18
6.79978e-18
5.83197e-18
3.61954e-17
-6.93312e-18
-6.17905e-18
6.014e-18
1.06304e-17
4.10311e-17
-1.61717e-17
-6.7727e-18
9.28792e-21
3.59334e-17
-4.97145e-18
5.01591e-18
-3.49555e-17
-1.99201e-20
3.30605e-20
3.59392e-17
-4.97301e-18
5.01561e-18
-3.49635e-17
-5.20172e-20
7.67236e-20
3.59613e-17
-4.97957e-18
5.02146e-18
-3.49948e-17
-1.14032e-19
1.6533e-19
3.60181e-17
-4.99085e-18
5.03176e-18
-3.50734e-17
-2.45438e-19
3.58866e-19
3.61483e-17
-5.01443e-18
5.05332e-18
-3.52543e-17
-5.38424e-19
7.94214e-19
3.64162e-17
-5.06773e-18
5.11862e-18
-3.56509e-17
-1.09867e-18
1.45586e-18
3.69155e-17
-5.27575e-18
5.24922e-18
-2.45499e-18
3.713e-18
3.85647e-17
-5.5418e-18
5.51312e-18
-3.85128e-17
-5.73333e-18
8.70082e-18
4.16426e-17
-6.05045e-18
5.9775e-18
-4.28221e-17
5.54609e-18
3.65979e-17
-1.47505e-20
-5.23239e-18
5.54228e-18
3.91607e-20
3.66049e-17
-7.00742e-20
-5.22871e-18
5.54298e-18
1.08602e-19
3.66347e-17
-1.64727e-19
-5.23145e-18
5.54805e-18
2.40226e-19
3.67034e-17
-3.56645e-19
-5.23908e-18
5.56164e-18
5.17401e-19
3.68571e-17
-7.69128e-19
-5.25815e-18
5.62651e-18
1.11547e-18
3.72003e-17
-1.72e-18
-5.33184e-18
3.74637e-17
-3.82421e-18
-5.84333e-18
2.68543e-18
5.83723e-18
3.93707e-17
-8.9247e-18
-5.86461e-18
5.02575e-18
1.35542e-17
4.46864e-17
-2.05779e-17
-6.10987e-18
5.77455e-18
5.35493e-18
1.16504e-20
3.88672e-17
-5.61851e-18
-3.74301e-17
5.35686e-18
-2.42283e-20
4.07048e-20
3.88729e-17
-5.62031e-18
-3.74422e-17
5.362e-18
-6.326e-20
9.32527e-20
3.89011e-17
-5.62505e-18
-3.74825e-17
5.37274e-18
-1.37133e-19
1.98245e-19
3.89678e-17
-5.63547e-18
-3.7576e-17
5.39531e-18
-2.89262e-19
4.17996e-19
3.91165e-17
-5.65664e-18
-3.77831e-17
5.42632e-18
-6.09749e-19
8.8455e-19
3.94731e-17
-5.69063e-18
-3.82597e-17
5.52405e-18
-3.95398e-17
-1.34866e-18
2.03087e-18
4.03842e-17
-5.77159e-18
5.87841e-18
-4.19353e-17
-3.07357e-18
4.57205e-18
4.21365e-17
-6.117e-18
6.47011e-18
-4.67213e-17
-6.9185e-18
1.04146e-17
4.54628e-17
-6.73153e-18
3.83235e-17
-1.79964e-20
-5.79935e-18
4.95852e-18
5.07834e-20
3.83322e-17
-9.0317e-20
-5.79872e-18
4.94103e-18
1.42006e-19
3.83665e-17
-2.12228e-19
-5.80336e-18
4.94415e-18
3.11969e-19
3.84457e-17
-4.5394e-19
-5.81444e-18
4.95274e-18
6.6019e-19
3.86165e-17
-9.58871e-19
-5.8387e-18
4.97413e-18
1.39778e-18
3.89793e-17
-2.04247e-18
-5.88177e-18
5.01361e-18
5.46248e-18
3.00205e-18
3.98292e-17
-4.47418e-18
-5.91724e-18
5.62932e-18
6.6327e-18
4.185e-17
-9.9528e-18
-6.02908e-18
6.04886e-18
1.51503e-17
4.75941e-17
-2.3078e-17
-6.50423e-18
5.49522e-18
-3.96284e-17
1.31336e-20
4.07132e-17
-5.35732e-18
5.49803e-18
-3.96458e-17
-2.71308e-20
4.68736e-20
4.07195e-17
-5.35868e-18
5.50255e-18
-3.96928e-17
-7.25839e-20
1.08583e-19
4.07523e-17
-5.36302e-18
5.51271e-18
-3.98014e-17
-1.58457e-19
2.3125e-19
4.08293e-17
-5.37319e-18
5.53407e-18
-4.00387e-17
-3.34647e-19
4.87523e-19
4.09998e-17
-5.39591e-18
5.58229e-18
-4.05615e-17
-7.07454e-19
1.0354e-18
4.13836e-17
-5.45231e-18
5.70075e-18
-4.1728e-17
-1.52058e-18
2.25005e-18
4.22485e-17
-5.60114e-18
6.03433e-18
-4.44006e-17
-3.3323e-18
5.01065e-18
4.41701e-17
-5.9379e-18
6.6281e-18
-4.98621e-17
-7.63666e-18
1.16577e-17
4.78397e-17
-6.50428e-18
5.58936e-18
4.05231e-17
-2.18621e-20
-6.07504e-18
5.58741e-18
5.84231e-20
4.05337e-17
-1.04313e-19
-6.07543e-18
5.59271e-18
1.63545e-19
4.05731e-17
-2.45871e-19
-6.08113e-18
5.60429e-18
3.60546e-19
4.06636e-17
-5.27036e-19
-6.09295e-18
5.62742e-18
7.65053e-19
4.08606e-17
-1.11535e-18
-6.11565e-18
5.66728e-18
1.62136e-18
4.12893e-17
-2.36933e-18
-6.1563e-18
5.72903e-18
3.454e-18
4.22317e-17
-5.0679e-18
-6.23005e-18
5.86951e-18
7.46145e-18
4.44636e-17
-1.11485e-17
-6.39868e-18
6.52899e-18
1.69155e-17
5.09245e-17
-2.576e-17
-7.08064e-18
5.22729e-18
-4.16447e-17
1.47878e-20
4.26776e-17
-4.94762e-18
5.22895e-18
-4.16635e-17
-3.12222e-20
5.42816e-20
4.26864e-17
-4.949e-18
5.23322e-18
-4.17181e-17
-8.38329e-20
1.25655e-19
4.27249e-17
-4.95326e-18
5.24357e-18
-4.1843e-17
-1.8283e-19
2.67103e-19
4.28137e-17
-4.96379e-18
5.26769e-18
-4.2115e-17
-3.8563e-19
5.62444e-19
4.30076e-17
-4.98847e-18
5.32661e-18
-4.27083e-17
-8.14468e-19
1.19095e-18
4.34331e-17
-5.0469e-18
5.47067e-18
-4.40226e-17
-1.73173e-18
2.54431e-18
4.43844e-17
-5.18466e-18
5.79375e-18
-4.69621e-17
-3.7519e-18
5.62895e-18
4.64569e-17
-5.48928e-18
6.37451e-18
-5.29147e-17
-8.57821e-18
1.32217e-17
5.0231e-17
-6.02761e-18
5.28722e-18
4.26304e-17
-2.71718e-20
-4.95137e-18
5.29911e-18
7.03375e-20
4.26424e-17
-1.24683e-19
-4.95468e-18
5.30457e-18
1.94723e-19
4.26875e-17
-2.91569e-19
-4.95987e-18
5.31558e-18
4.25787e-19
4.27905e-17
-6.19272e-19
-4.97038e-18
5.33624e-18
8.94007e-19
4.3012e-17
-1.29491e-18
-4.99012e-18
5.37327e-18
1.86928e-18
4.34843e-17
-2.7116e-18
-5.02584e-18
5.44054e-18
3.92727e-18
4.45067e-17
-5.72773e-18
-5.09053e-18
5.596e-18
8.3845e-18
4.68939e-17
-1.24517e-17
-5.23492e-18
6.63711e-18
1.87655e-17
5.34194e-17
-2.82658e-17
-5.92101e-18
4.74812e-18
-4.3744e-17
1.76485e-20
4.50528e-17
-4.61787e-18
4.7494e-18
-4.37652e-17
-3.68921e-20
6.39201e-20
4.50627e-17
-4.61936e-18
4.75368e-18
-4.38276e-17
-9.84407e-20
1.46938e-19
4.51067e-17
-4.62373e-18
4.76431e-18
-4.39691e-17
-2.12873e-19
3.09292e-19
4.52074e-17
-4.63445e-18
4.78908e-18
-4.42735e-17
-4.44001e-19
6.43191e-19
4.54249e-17
-4.65918e-18
4.84675e-18
-4.49281e-17
-9.2492e-19
1.34261e-18
4.58968e-17
-4.71611e-18
4.9811e-18
-4.63566e-17
-1.93997e-18
2.83248e-18
4.69367e-17
-4.84819e-18
5.27316e-18
-4.94822e-17
-4.15036e-18
6.17459e-18
4.91644e-17
-5.13861e-18
5.6572e-18
-5.55062e-17
-9.29475e-18
1.39531e-17
5.32218e-17
-5.52683e-18
4.21397e-18
4.46657e-17
-3.07195e-20
-4.07141e-18
4.20445e-18
8.12483e-20
4.46791e-17
-1.44161e-19
-4.07473e-18
4.20948e-18
2.24622e-19
4.47299e-17
-3.34994e-19
-4.07941e-18
4.21956e-18
4.86971e-19
4.48449e-17
-7.04511e-19
-4.08868e-18
4.23827e-18
1.01154e-18
4.50898e-17
-1.45671e-18
-4.10582e-18
4.27144e-18
2.091e-18
4.56062e-17
-3.0161e-18
-4.13555e-18
4.32856e-18
4.34524e-18
4.67132e-17
-6.30554e-18
-4.18264e-18
4.44294e-18
9.18943e-18
4.92816e-17
-1.35901e-17
-4.25606e-18
5.099e-18
2.03742e-17
5.60661e-17
-2.99994e-17
-4.56953e-18
4.38943e-18
-4.55092e-17
2.00899e-20
4.65266e-17
-3.88896e-18
4.39137e-18
-4.55329e-17
-4.27763e-20
7.40937e-20
4.65374e-17
-3.89036e-18
4.39554e-18
-4.56023e-17
-1.13861e-19
1.69293e-19
4.65859e-17
-3.89426e-18
4.40577e-18
-4.57587e-17
-2.44322e-19
3.53244e-19
4.66961e-17
-3.90384e-18
4.42937e-18
-4.60921e-17
-5.04731e-19
7.27194e-19
4.6932e-17
-3.92586e-18
4.48391e-18
-4.68018e-17
-1.04042e-18
1.50199e-18
4.74393e-17
-3.97685e-18
4.61151e-18
-4.8334e-17
-2.15972e-18
3.13787e-18
4.85449e-17
-4.0976e-18
4.89897e-18
-5.16387e-17
-4.57887e-18
6.78087e-18
5.08755e-17
-4.37713e-18
5.34943e-18
-5.77833e-17
-1.0145e-17
1.50626e-17
5.5066e-17
-4.86224e-18
3.52636e-18
4.59303e-17
-3.41639e-20
-3.26968e-18
3.5329e-18
9.12875e-20
4.59441e-17
-1.61939e-19
-3.2716e-18
3.53707e-18
2.51798e-19
4.59994e-17
-3.74271e-19
-3.27517e-18
3.54514e-18
5.42061e-19
4.61238e-17
-7.80849e-19
-3.2821e-18
3.55961e-18
1.11625e-18
4.63862e-17
-1.59988e-18
-3.29441e-18
3.58334e-18
2.28549e-18
4.6934e-17
-3.27996e-18
-3.31409e-18
3.61555e-18
4.7018e-18
4.81007e-17
-6.78985e-18
-3.33769e-18
3.64541e-18
9.8571e-18
5.08317e-17
-1.45435e-17
-3.33889e-18
3.89715e-18
2.18105e-17
5.82977e-17
-3.20199e-17
-3.32849e-18
3.39473e-18
-4.68722e-17
2.27151e-20
4.80104e-17
-2.93922e-18
3.3959e-18
-4.68984e-17
-4.79587e-20
8.2808e-20
4.80226e-17
-2.94039e-18
3.39947e-18
-4.69737e-17
-1.26931e-19
1.88045e-19
4.80752e-17
-2.94367e-18
3.40826e-18
-4.71424e-17
-2.7041e-19
3.8923e-19
4.8194e-17
-2.95166e-18
3.42852e-18
-4.74992e-17
-5.53718e-19
7.93763e-19
4.84468e-17
-2.96998e-18
3.47567e-18
-4.82522e-17
-1.12993e-18
1.62216e-18
4.89863e-17
-3.01241e-18
3.58853e-18
-4.98618e-17
-2.32018e-18
3.3549e-18
5.01468e-17
-3.11477e-18
3.85421e-18
-5.32765e-17
-4.88487e-18
7.24867e-18
5.24916e-17
-3.36518e-18
4.27958e-18
-5.94419e-17
-1.09553e-17
1.65992e-17
5.60247e-17
-3.70399e-18
2.43387e-18
4.693e-17
-3.6961e-20
-1.86488e-18
2.42826e-18
9.91552e-20
4.6945e-17
-1.75719e-19
-1.86663e-18
2.43111e-18
2.72688e-19
4.70036e-17
-4.04161e-19
-1.86862e-18
2.43645e-18
5.83492e-19
4.71349e-17
-8.37446e-19
-1.8722e-18
2.44548e-18
1.19261e-18
4.74097e-17
-1.70229e-18
-1.87794e-18
2.45856e-18
2.42155e-18
4.79781e-17
-3.45962e-18
-1.88522e-18
2.46915e-18
4.93629e-18
4.91779e-17
-7.09248e-18
-1.8871e-18
2.44766e-18
1.02405e-17
5.19702e-17
-1.5013e-17
-1.8618e-18
2.58974e-18
2.23623e-17
5.97317e-17
-3.27767e-17
-1.94344e-18
2.4207e-18
-4.75851e-17
2.45697e-20
4.85522e-17
-1.73814e-18
2.42213e-18
-4.76127e-17
-5.19178e-20
8.94288e-20
4.85643e-17
-1.73872e-18
2.42485e-18
-4.7692e-17
-1.36798e-19
2.02085e-19
4.86192e-17
-1.74082e-18
2.43154e-18
-4.78684e-17
-2.89801e-19
4.15708e-19
4.87427e-17
-1.74601e-18
2.44697e-18
-4.8239e-17
-5.89404e-19
8.41607e-19
4.90038e-17
-1.75797e-18
2.483e-18
-4.9016e-17
-1.19329e-18
1.70535e-18
4.95584e-17
-1.78587e-18
2.57105e-18
-5.0666e-17
-2.42741e-18
3.4898e-18
5.07468e-17
-1.8538e-18
2.79011e-18
-5.41534e-17
-5.04753e-18
7.42594e-18
5.31499e-17
-2.01661e-18
3.06502e-18
-6.0536e-17
-1.11203e-17
1.67635e-17
5.69022e-17
-2.13782e-18
1.45252e-18
4.67909e-17
-3.70665e-20
-1.04583e-18
1.46732e-18
1.01758e-19
4.68048e-17
-1.80755e-19
-1.04319e-18
1.46868e-18
2.8033e-19
4.6864e-17
-4.14771e-19
-1.04402e-18
1.47096e-18
5.97545e-19
4.69963e-17
-8.55421e-19
-1.04548e-18
1.47436e-18
1.21483e-18
4.72714e-17
-1.72851e-18
-1.04792e-18
1.47772e-18
2.45036e-18
4.78354e-17
-3.48708e-18
-1.05115e-18
1.4746e-18
4.95378e-18
4.901e-17
-7.08254e-18
-1.05215e-18
1.45115e-18
1.01724e-17
5.16959e-17
-1.48341e-17
-1.04209e-18
1.67467e-18
2.19963e-17
5.89356e-17
-3.1993e-17
-1.02313e-18
1.01172e-18
-4.78485e-17
2.53621e-20
4.89928e-17
-5.17873e-19
1.01143e-18
-4.78771e-17
-5.34212e-20
9.18836e-20
4.90067e-17
-5.17885e-19
1.01278e-18
-4.79579e-17
-1.40284e-19
2.06735e-19
4.9063e-17
-5.18618e-19
1.01625e-18
-4.81372e-17
-2.95695e-19
4.22912e-19
4.91892e-17
-5.20476e-19
1.02429e-18
-4.85118e-17
-5.97706e-19
8.50442e-19
4.94548e-17
-5.24694e-19
1.04325e-18
-4.92919e-17
-1.20103e-18
1.7087e-18
5.00162e-17
-5.34468e-19
1.08944e-18
-5.09327e-17
-2.41943e-18
3.45755e-18
5.12122e-17
-5.58087e-19
1.19589e-18
-5.43431e-17
-4.96894e-18
7.26651e-18
5.35982e-17
-6.12667e-19
1.31775e-18
-6.03836e-17
-1.08483e-17
1.6397e-17
5.71731e-17
-7.35123e-19
1.97436e-17
-2.61062e-23
2.78555e-20
6.00982e-21
1.97434e-17
-1.35539e-20
2.70772e-20
2.09936e-20
1.97502e-17
-3.27558e-20
2.54269e-20
4.46e-20
1.97603e-17
-6.78006e-20
3.16809e-20
1.97877e-17
-1.60962e-19
7.27722e-20
9.71127e-20
2.35481e-19
1.98723e-17
-3.65326e-19
6.064e-20
5.14522e-19
2.00774e-17
-8.22805e-19
5.57682e-20
2.04607e-17
-1.87801e-18
1.46613e-19
1.21234e-18
2.81459e-18
2.21226e-17
-4.02497e-18
2.34063e-19
1.67102e-19
1.88163e-17
3.68277e-22
-3.93886e-19
1.6934e-19
5.73047e-21
1.88202e-17
-1.5653e-20
-3.99404e-19
1.7716e-19
2.53235e-20
1.88371e-17
-3.54215e-20
-4.28675e-19
1.74733e-19
4.55159e-20
1.88646e-17
-6.4621e-20
-4.43422e-19
-2.11304e-19
-4.09505e-19
1.98106e-17
1.9846e-17
1.95163e-17
1.95624e-17
4.67494e-19
3.39705e-19
4.61058e-19
3.38188e-19
-1.52937e-19
-2.08998e-19
-1.38039e-19
9.41538e-20
7.46393e-20
9.45949e-20
7.42687e-20
-6.98112e-19
-5.03042e-19
-7.31888e-19
2.3893e-19
1.8995e-17
-3.36319e-19
-4.05437e-19
1.50288e-19
4.82608e-19
1.9152e-17
-7.75613e-19
-3.85425e-19
-7.60893e-18
-3.98043e-19
2.07765e-17
2.1176e-17
2.04416e-17
2.07858e-17
4.87027e-19
3.41596e-19
5.7387e-19
3.7597e-19
-7.13404e-19
-1.99752e-19
-6.50646e-19
1.21902e-18
5.92386e-19
1.15102e-18
5.4762e-19
-1.90542e-19
2.20672e-17
-7.81136e-18
2.26931e-17
2.15888e-17
2.21542e-17
5.81303e-19
3.71559e-19
4.17147e-19
3.03137e-19
-6.92691e-19
-4.19788e-19
-7.8546e-19
7.60269e-21
-6.75562e-19
1.90321e-17
1.90313e-17
1.84266e-17
1.84268e-17
-9.5448e-19
-6.55946e-19
-9.54629e-19
1.09611e-18
9.21234e-19
1.11003e-18
9.21124e-19
-9.87368e-24
-6.54555e-19
1.90324e-17
1.90324e-17
1.84344e-17
1.84614e-17
-9.55617e-19
-7.59432e-19
-9.77339e-19
1.1114e-18
9.1795e-19
1.00896e-18
8.79731e-19
-1.93654e-20
5.55124e-21
-1.44928e-20
7.93603e-19
1.84133e-17
-1.86074e-20
-9.30165e-19
7.10148e-19
3.42829e-20
1.8382e-17
-5.77087e-20
-9.25886e-19
8.70137e-20
1.83683e-17
-1.44018e-19
-9.40999e-19
-1.40073e-18
-7.47398e-19
1.92097e-17
1.92752e-17
1.86374e-17
1.86682e-17
-9.73459e-19
-6.37466e-19
-9.49017e-19
9.36743e-19
8.53735e-19
1.12217e-18
9.16331e-19
2.2333e-19
1.1475e-19
2.20753e-19
1.15142e-19
-1.03492e-18
-6.33663e-19
1.9466e-17
1.96233e-17
1.88424e-17
1.90332e-17
-5.56273e-19
-9.28564e-19
-5.58089e-19
-9.48293e-19
-7.44084e-19
-9.65956e-19
1.11765e-18
9.16255e-19
8.85489e-19
8.45612e-19
1.89144e-17
-1.52284e-18
-9.28974e-19
2.29728e-18
2.01479e-17
-3.11805e-18
-9.64304e-19
1.72367e-17
2.93676e-21
-1.22786e-18
-9.93946e-22
1.72431e-17
-5.45402e-21
-1.22708e-18
1.10606e-20
9.83385e-19
1.73119e-17
-1.90245e-20
-1.22743e-18
1.07962e-18
3.33661e-20
1.73533e-17
-5.3046e-20
-1.22907e-18
1.08232e-18
7.83094e-20
1.73784e-17
-1.2835e-19
-1.22856e-18
1.73661e-17
-2.74921e-19
-1.22924e-18
1.8272e-19
3.87884e-19
1.74787e-17
-5.9942e-19
-1.22302e-18
9.80152e-19
1.77894e-17
-1.30133e-18
-1.21198e-18
8.60977e-19
1.12335e-18
1.95556e-18
1.89655e-17
-2.73529e-18
-1.23639e-18
1.32238e-18
1.6267e-17
1.86722e-22
-1.3985e-18
1.32227e-18
3.59671e-21
1.62665e-17
-9.54922e-21
-1.39788e-18
1.62661e-17
-2.19577e-20
-1.39723e-18
1.37253e-20
1.30011e-18
3.21192e-20
1.62743e-17
-4.95895e-20
-1.39764e-18
1.29461e-18
7.07095e-20
1.62975e-17
-1.08967e-19
-1.39767e-18
1.29452e-18
1.31786e-18
1.53605e-19
1.63536e-17
-2.38144e-19
-1.3977e-18
1.32106e-18
3.3432e-19
1.64737e-17
-5.21666e-19
-1.39751e-18
1.31409e-18
1.66753e-17
-1.09608e-18
-1.39747e-18
7.47567e-19
1.35071e-18
1.63709e-18
1.76262e-17
-2.22064e-18
-1.45468e-18
1.47303e-18
1.57742e-17
-2.28984e-22
-1.60503e-18
1.47225e-18
3.75268e-21
1.57734e-17
-8.545e-21
-1.60459e-18
1.46959e-18
1.57783e-17
-2.14858e-20
-1.60595e-18
1.34031e-20
1.46937e-18
3.12824e-20
1.57889e-17
-4.76145e-20
-1.60271e-18
1.46933e-18
6.72109e-20
1.58113e-17
-1.0241e-19
-1.60181e-18
1.47013e-18
1.44e-19
1.58607e-17
-2.22404e-19
-1.603e-18
1.47279e-18
3.12107e-19
1.5972e-17
-4.87211e-19
-1.60551e-18
1.4759e-18
1.61616e-17
-1.03212e-18
-1.60827e-18
6.98344e-19
1.56035e-18
1.54451e-18
1.70069e-17
-2.07075e-18
-1.67902e-18
1.53474e-17
-6.91843e-22
-2.03194e-18
1.78185e-18
4.28801e-21
1.53473e-17
-9.05768e-21
-2.03138e-18
1.78043e-18
1.4091e-20
1.53518e-17
-2.25546e-20
-2.03078e-18
1.79052e-18
1.53605e-17
-4.70152e-20
-2.0313e-18
3.15034e-20
1.78178e-18
6.60898e-20
1.53805e-17
-9.9383e-20
-2.03268e-18
1.77994e-18
1.40271e-19
1.54276e-17
-2.14472e-19
-2.03428e-18
1.78111e-18
3.02371e-19
1.55305e-17
-4.68752e-19
-2.03439e-18
1.78017e-18
1.56974e-17
-9.82834e-19
-2.02891e-18
6.7447e-19
1.77728e-18
1.47579e-18
1.64478e-17
-2.0143e-18
-2.06908e-18
1.8294e-18
2.09517e-18
1.50739e-17
-9.83693e-22
-2.14831e-18
2.09587e-18
4.58235e-21
1.50741e-17
-8.94996e-21
-2.14651e-18
2.09617e-18
1.37274e-20
1.50778e-17
-2.17498e-20
-2.14718e-18
2.09539e-18
1.50855e-17
-4.52624e-20
-2.14994e-18
3.0352e-20
2.09728e-18
6.42509e-20
1.51062e-17
-9.62597e-20
-2.14852e-18
2.09974e-18
1.35446e-19
1.51521e-17
-2.05962e-19
-2.15076e-18
2.10294e-18
2.87363e-19
1.52493e-17
-4.40065e-19
-2.15682e-18
2.098e-18
1.5392e-17
-8.885e-19
-2.16296e-18
6.21737e-19
2.17183e-18
1.32315e-18
1.60797e-17
-1.7763e-18
-2.23493e-18
1.50751e-17
-1.9359e-21
-2.52929e-18
2.21626e-18
5.28194e-21
1.50754e-17
-9.7944e-21
-2.52934e-18
2.21288e-18
1.51158e-20
1.50796e-17
-2.32182e-20
-2.52983e-18
2.21322e-18
3.32693e-20
1.50901e-17
-4.95942e-20
-2.52976e-18
2.22355e-18
1.51105e-17
-1.04511e-19
-2.53515e-18
7.06909e-20
2.21706e-18
1.48225e-19
1.51571e-17
-2.21306e-19
-2.54234e-18
2.21918e-18
3.12617e-19
1.52537e-17
-4.68014e-19
-2.55293e-18
2.22622e-18
1.54103e-17
-9.52503e-19
-2.56623e-18
6.66197e-19
2.24473e-18
1.43038e-18
1.61277e-17
-1.99462e-18
-2.66614e-18
2.34098e-18
2.49604e-18
1.51226e-17
-2.25955e-21
-2.43798e-18
2.49822e-18
6.09166e-21
1.51229e-17
-1.08966e-20
-2.43624e-18
2.49884e-18
1.65159e-20
1.51274e-17
-2.51504e-20
-2.43701e-18
2.50024e-18
3.58331e-20
1.51382e-17
-5.42345e-20
-2.4391e-18
2.50322e-18
1.51579e-17
-1.12671e-19
-2.44498e-18
7.60093e-20
2.51151e-18
1.60251e-19
1.52086e-17
-2.39642e-19
-2.44988e-18
2.52481e-18
3.38084e-19
1.53136e-17
-5.07455e-19
-2.46413e-18
2.53692e-18
1.54833e-17
-1.02988e-18
-2.48767e-18
7.1597e-19
2.65083e-18
1.53033e-18
1.62037e-17
-2.14774e-18
-2.58722e-18
1.55297e-17
-3.67448e-21
-3.07622e-18
2.54468e-18
7.76711e-21
1.55307e-17
-1.33999e-20
-3.07632e-18
2.53938e-18