/*--------------------------------*- C++ -*----------------------------------*\
| =========                 |                                                 |
| \\      /  F ield         | foam-extend: Open Source CFD                    |
|  \\    /   O peration     | Version:     3.1                                |
|   \\  /    A nd           | Web:         http://www.extend-project.de       |
|    \\/     M anipulation  |                                                 |
\*---------------------------------------------------------------------------*/
FoamFile
{
    version     2.0;
    format      ascii;
    class       volScalarField;
    location    "172800";
    object      REpsilonEq;
}
// * * * * * * * * * * * * * * * * * * * * * * * * * * * * * * * * * * * * * //

dimensions      [0 0 0 0 0 0 0];

internalField   nonuniform List<scalar> 
21211
(
8.24399e-07
8.2362e-07
8.23504e-07
8.21867e-07
8.14967e-07
8.12913e-07
8.04392e-07
7.90562e-07
8.67533e-07
8.63449e-07
8.66871e-07
8.66733e-07
8.6393e-07
8.56423e-07
8.45393e-07
8.15051e-07
7.44489e-07
7.59861e-07
7.65142e-07
7.63509e-07
7.62951e-07
7.61784e-07
7.59421e-07
7.54087e-07
7.43343e-07
7.3455e-07
8.1966e-07
8.12118e-07
8.15486e-07
8.14847e-07
8.12842e-07
8.07459e-07
7.93821e-07
7.58886e-07
6.82843e-07
6.68346e-07
8.53434e-07
8.51033e-07
8.504e-07
8.49226e-07
8.47137e-07
8.41773e-07
8.30936e-07
8.23955e-07
9.10685e-07
8.40578e-07
8.43613e-07
8.42838e-07
8.40856e-07
8.35596e-07
8.21825e-07
7.86886e-07
7.11364e-07
6.78376e-07
8.67503e-07
8.65507e-07
8.64946e-07
8.63831e-07
8.61695e-07
8.56016e-07
8.44604e-07
8.355e-07
9.1097e-07
8.44123e-07
8.45718e-07
8.44887e-07
8.42691e-07
8.37023e-07
8.22051e-07
7.83712e-07
6.98265e-07
6.47578e-07
9.39069e-07
9.36153e-07
9.35434e-07
9.34141e-07
9.31928e-07
9.25823e-07
9.13261e-07
9.0474e-07
9.97518e-07
8.2896e-07
8.28411e-07
8.27179e-07
8.24684e-07
8.18412e-07
8.02215e-07
7.61179e-07
6.71885e-07
6.171e-07
9.99124e-07
9.97023e-07
9.96483e-07
9.9545e-07
9.92971e-07
9.86698e-07
9.74275e-07
9.6114e-07
1.0247e-06
8.61562e-07
8.58931e-07
8.57578e-07
8.54931e-07
8.48408e-07
8.31609e-07
7.89541e-07
6.96674e-07
6.12687e-07
1.18078e-06
1.17955e-06
1.17896e-06
1.17769e-06
1.17576e-06
1.16958e-06
1.15591e-06
1.1525e-06
1.27739e-06
9.39264e-07
9.34236e-07
9.32684e-07
9.29967e-07
9.23433e-07
9.06734e-07
8.64792e-07
7.75774e-07
7.27838e-07
1.15314e-06
1.15225e-06
1.15143e-06
1.15014e-06
1.14744e-06
1.14118e-06
1.12872e-06
1.11502e-06
1.17577e-06
9.52691e-07
9.46695e-07
9.44854e-07
9.418e-07
9.34551e-07
9.16398e-07
8.7177e-07
7.77206e-07
7.02797e-07
1.30465e-06
1.30469e-06
1.3043e-06
1.30292e-06
1.29971e-06
1.29363e-06
1.27887e-06
1.27257e-06
1.38483e-06
1.03787e-06
1.03326e-06
1.03184e-06
1.02888e-06
1.02143e-06
1.00258e-06
9.56153e-07
8.59968e-07
7.92493e-07
1.5274e-06
1.5276e-06
1.52886e-06
1.52783e-06
1.52466e-06
1.51861e-06
1.49252e-06
1.49567e-06
1.60159e-06
1.10446e-06
1.10137e-06
1.10039e-06
1.09752e-06
1.09003e-06
1.07017e-06
1.02176e-06
9.35161e-07
8.94866e-07
1.4949e-06
1.49557e-06
1.49607e-06
1.49458e-06
1.49046e-06
1.487e-06
1.13824e-06
1.52146e-06
1.57459e-06
1.12437e-06
1.12443e-06
1.12317e-06
1.11936e-06
1.10962e-06
1.09136e-06
1.08506e-06
9.42089e-07
9.11075e-07
1.82222e-06
1.82201e-06
1.82125e-06
1.81939e-06
1.81529e-06
1.80307e-06
1.44261e-06
1.72509e-06
1.88134e-06
1.22225e-06
1.22347e-06
1.22219e-06
1.21874e-06
1.21071e-06
1.18889e-06
1.13786e-06
1.04445e-06
9.97903e-07
1.78512e-06
1.78412e-06
1.78313e-06
1.78102e-06
1.77609e-06
1.76375e-06
1.74128e-06
1.73628e-06
1.83123e-06
1.23947e-06
1.24192e-06
1.24061e-06
1.23664e-06
1.22694e-06
1.20345e-06
1.15164e-06
1.06096e-06
1.04262e-06
1.86572e-06
1.8637e-06
1.86255e-06
1.86031e-06
1.85536e-06
1.84501e-06
1.82734e-06
1.81464e-06
1.90048e-06
1.31403e-06
1.31509e-06
1.31352e-06
1.30934e-06
1.29948e-06
1.27653e-06
1.22587e-06
1.1377e-06
1.13065e-06
1.9792e-06
1.9771e-06
1.97593e-06
1.97365e-06
1.9687e-06
1.95856e-06
1.94088e-06
1.92492e-06
1.99568e-06
1.42759e-06
1.42894e-06
1.42744e-06
1.42328e-06
1.41355e-06
1.39127e-06
1.34254e-06
1.25507e-06
1.20529e-06
2.09167e-06
2.09004e-06
2.08884e-06
2.08637e-06
2.08109e-06
2.07048e-06
2.05299e-06
2.04332e-06
2.12589e-06
1.49251e-06
1.49303e-06
1.49133e-06
1.48699e-06
1.47698e-06
1.4542e-06
1.40461e-06
1.317e-06
1.27379e-06
2.07357e-06
2.0719e-06
2.07068e-06
2.06826e-06
2.06318e-06
2.05334e-06
2.03818e-06
2.03459e-06
2.16445e-06
1.56904e-06
1.56996e-06
1.56828e-06
1.56395e-06
1.55414e-06
1.53227e-06
1.48608e-06
1.41001e-06
1.41921e-06
2.11062e-06
2.10908e-06
2.10785e-06
2.10541e-06
2.10029e-06
2.09034e-06
2.07516e-06
2.07292e-06
2.21665e-06
1.61902e-06
1.61975e-06
1.61804e-06
1.61372e-06
1.60394e-06
1.58224e-06
1.53658e-06
1.46101e-06
1.4614e-06
2.03162e-06
2.03027e-06
2.02908e-06
2.02678e-06
2.02199e-06
2.01276e-06
1.99841e-06
1.99296e-06
2.10596e-06
1.70779e-06
1.70865e-06
1.70703e-06
1.703e-06
1.69399e-06
1.67403e-06
1.63193e-06
1.56169e-06
1.57691e-06
1.1739e-06
1.17262e-06
1.17221e-06
1.17368e-06
1.1623e-06
1.16634e-06
1.15869e-06
1.12646e-06
1.05071e-06
1.0403e-06
1.03581e-06
1.03913e-06
1.04224e-06
7.49658e-07
1.04429e-06
1.01151e-06
6.38981e-07
5.91829e-07
8.47865e-07
8.23079e-07
1.01735e-06
9.94987e-07
8.79554e-07
8.04878e-07
7.80243e-07
8.48275e-07
7.87843e-07
1.09583e-06
1.09438e-06
1.24207e-06
1.25009e-06
1.24872e-06
1.08821e-06
1.07841e-06
1.20456e-06
1.08292e-06
1.17753e-06
1.17788e-06
1.17471e-06
1.17391e-06
1.1725e-06
1.17094e-06
1.16454e-06
1.14474e-06
1.0105e-06
1.02803e-06
1.02824e-06
1.02746e-06
1.02629e-06
1.02449e-06
1.02047e-06
1.01137e-06
9.91397e-07
9.0741e-07
9.77018e-07
9.77282e-07
9.76874e-07
9.75545e-07
9.73848e-07
9.70384e-07
9.63579e-07
9.49189e-07
8.67075e-07
9.22737e-07
9.22718e-07
9.22331e-07
9.21283e-07
9.19499e-07
9.16085e-07
9.10276e-07
9.00756e-07
8.43397e-07
8.57389e-07
8.57448e-07
8.56998e-07
8.56248e-07
8.5429e-07
8.50058e-07
8.42225e-07
8.27824e-07
8.26518e-07
9.51321e-07
9.51042e-07
9.50601e-07
9.4976e-07
9.47341e-07
9.43219e-07
9.3628e-07
9.24241e-07
8.9327e-07
8.95164e-07
8.94976e-07
8.94499e-07
8.93419e-07
8.91379e-07
8.8662e-07
8.77769e-07
8.71253e-07
9.84923e-07
1.05153e-06
1.05132e-06
1.05081e-06
1.04962e-06
1.04703e-06
1.04182e-06
1.03223e-06
1.01938e-06
1.0652e-06
1.04901e-06
1.04914e-06
1.04862e-06
1.04739e-06
1.04471e-06
1.03967e-06
1.03136e-06
1.02016e-06
1.04114e-06
1.1085e-06
1.10866e-06
1.10811e-06
1.10685e-06
1.10423e-06
1.09931e-06
1.09127e-06
1.07852e-06
1.07229e-06
1.2105e-06
1.2108e-06
1.21022e-06
1.20886e-06
1.20605e-06
1.20067e-06
1.19136e-06
1.1762e-06
1.17306e-06
1.25855e-06
1.25893e-06
1.25831e-06
1.25685e-06
1.25383e-06
1.24805e-06
1.23795e-06
1.22067e-06
1.19734e-06
1.23589e-06
1.23638e-06
1.23579e-06
1.23431e-06
1.23131e-06
1.22574e-06
1.2165e-06
1.20238e-06
1.19047e-06
1.19904e-06
1.19943e-06
1.19877e-06
1.19718e-06
1.19392e-06
1.18786e-06
1.17809e-06
1.1662e-06
1.19261e-06
1.15235e-06
1.1528e-06
1.15223e-06
1.15078e-06
1.14789e-06
1.14262e-06
1.13422e-06
1.1211e-06
1.1062e-06
7.24532e-07
7.28336e-07
7.29359e-07
7.26727e-07
7.14204e-07
7.04782e-07
6.73971e-07
5.91204e-07
5.8557e-07
7.10111e-07
7.1456e-07
7.19513e-07
7.24387e-07
7.3667e-07
6.99906e-07
6.68765e-07
6.54775e-07
6.65134e-07
6.90346e-07
6.85487e-07
6.65791e-07
6.62228e-07
6.56079e-07
6.62941e-07
6.36709e-07
5.46285e-07
6.73013e-07
8.05674e-07
8.0873e-07
8.11171e-07
8.11787e-07
8.06925e-07
7.94704e-07
7.6982e-07
7.26233e-07
8.31196e-07
7.28427e-07
7.29381e-07
7.28004e-07
7.26326e-07
7.22544e-07
7.13718e-07
6.9058e-07
6.45853e-07
7.54807e-07
6.70603e-07
6.71185e-07
6.70476e-07
6.68969e-07
6.64965e-07
6.54807e-07
6.29361e-07
5.77261e-07
6.36577e-07
6.56428e-07
6.56753e-07
6.56026e-07
6.54338e-07
6.50208e-07
6.39924e-07
6.14687e-07
5.64761e-07
7.11977e-07
6.14349e-07
6.14567e-07
6.13745e-07
6.1188e-07
6.07504e-07
5.96961e-07
5.71643e-07
5.23893e-07
6.75339e-07
6.21847e-07
6.21577e-07
6.20742e-07
6.188e-07
6.14147e-07
6.02895e-07
5.75629e-07
5.24208e-07
7.35081e-07
6.71631e-07
6.71826e-07
6.71024e-07
6.68995e-07
6.64187e-07
6.52895e-07
6.26467e-07
5.78455e-07
7.30487e-07
6.81371e-07
6.81311e-07
6.80399e-07
6.77965e-07
6.7223e-07
6.58641e-07
6.2733e-07
5.73288e-07
7.47847e-07
7.29184e-07
7.29393e-07
7.28357e-07
7.25592e-07
7.19031e-07
7.03585e-07
6.68043e-07
6.07449e-07
7.44103e-07
7.68409e-07
7.68523e-07
7.67453e-07
7.64586e-07
7.57907e-07
7.42681e-07
7.09305e-07
6.56622e-07
7.92624e-07
8.07688e-07
8.07861e-07
8.06725e-07
8.03809e-07
7.97212e-07
7.82662e-07
7.52093e-07
7.04268e-07
8.02915e-07
8.74819e-07
8.74584e-07
8.73363e-07
8.70403e-07
8.6382e-07
8.49497e-07
8.19642e-07
7.71737e-07
8.37867e-07
9.07268e-07
9.06785e-07
9.0546e-07
9.02331e-07
8.95432e-07
8.8051e-07
8.49401e-07
7.9705e-07
8.25698e-07
9.46304e-07
9.45603e-07
9.44243e-07
9.41115e-07
9.34347e-07
9.20119e-07
8.91792e-07
8.47061e-07
8.67831e-07
9.08603e-07
9.07689e-07
9.06231e-07
9.02938e-07
8.95826e-07
8.80858e-07
8.51186e-07
8.08687e-07
8.80117e-07
9.66121e-07
9.65213e-07
9.63903e-07
9.60977e-07
9.54754e-07
9.41859e-07
9.1644e-07
8.77272e-07
9.21985e-07
9.21846e-07
9.62384e-07
9.22031e-07
8.67847e-07
9.09339e-07
8.61899e-07
8.27804e-07
8.30602e-07
8.0431e-07
7.9377e-07
7.89792e-07
8.02443e-07
8.12888e-07
7.97577e-07
7.92803e-07
7.34985e-07
7.54166e-07
7.78954e-07
7.94615e-07
9.6186e-07
7.87639e-07
8.02011e-07
7.6463e-07
7.35919e-07
7.03668e-07
7.02013e-07
6.89151e-07
6.92498e-07
6.67802e-07
6.5458e-07
6.75371e-07
7.38197e-07
7.11275e-07
7.31802e-07
7.15046e-07
6.95036e-07
7.10779e-07
7.43353e-07
9.72565e-07
9.81733e-07
1.00961e-06
8.59228e-07
8.11235e-07
8.01889e-07
7.7477e-07
7.55558e-07
7.31765e-07
7.37463e-07
7.60702e-07
7.75497e-07
8.21407e-07
8.40294e-07
8.36169e-07
8.23582e-07
7.14731e-07
7.13569e-07
7.6251e-07
9.10012e-07
8.08683e-07
7.42424e-07
7.4901e-07
7.37203e-07
7.2619e-07
7.10009e-07
7.14453e-07
6.94744e-07
7.14845e-07
6.72665e-07
6.66667e-07
6.99885e-07
7.71018e-07
7.46465e-07
7.43168e-07
6.99883e-07
6.64163e-07
6.8081e-07
1.08433e-06
9.2084e-07
8.76309e-07
8.87904e-07
8.23207e-07
7.50079e-07
7.41224e-07
7.04757e-07
7.03489e-07
6.7266e-07
7.15288e-07
7.57616e-07
8.11198e-07
8.65136e-07
8.56683e-07
8.31359e-07
7.82491e-07
6.85826e-07
7.24258e-07
8.8574e-07
8.55205e-07
7.81651e-07
6.90801e-07
7.07572e-07
7.31612e-07
7.20185e-07
6.96257e-07
7.20171e-07
6.6843e-07
7.19997e-07
6.84281e-07
6.7764e-07
7.37187e-07
7.84506e-07
7.3324e-07
7.05714e-07
6.7717e-07
6.56779e-07
1.02936e-06
9.9679e-07
8.1959e-07
7.53745e-07
8.01477e-07
7.96616e-07
7.44782e-07
7.81939e-07
7.25089e-07
7.08372e-07
6.95277e-07
7.55054e-07
8.0004e-07
8.2715e-07
8.23766e-07
8.78903e-07
7.99925e-07
7.71223e-07
7.16293e-07
8.66324e-07
8.42491e-07
7.96893e-07
7.05039e-07
6.70764e-07
6.61693e-07
7.45899e-07
7.19411e-07
6.9853e-07
7.00666e-07
7.34475e-07
7.12043e-07
8.43114e-07
7.3644e-07
7.3341e-07
7.50173e-07
7.14349e-07
7.03918e-07
6.85569e-07
9.58333e-07
9.2677e-07
9.3182e-07
7.37271e-07
6.90847e-07
8.42344e-07
8.08006e-07
8.21301e-07
8.92796e-07
8.0711e-07
7.81841e-07
7.49324e-07
7.6506e-07
7.70069e-07
8.14348e-07
8.05444e-07
8.48284e-07
8.09626e-07
8.1615e-07
8.59254e-07
7.83268e-07
7.32505e-07
8.32244e-07
7.2916e-07
6.33859e-07
6.04242e-07
7.53575e-07
7.68657e-07
7.11688e-07
6.80099e-07
7.41085e-07
8.06131e-07
7.33392e-07
7.2335e-07
7.32068e-07
7.44797e-07
7.23181e-07
7.14495e-07
9.08465e-07
8.87566e-07
8.92891e-07
8.52687e-07
7.67146e-07
8.07905e-07
9.15031e-07
8.60842e-07
8.56379e-07
9.38919e-07
8.66135e-07
8.20331e-07
7.74145e-07
7.39893e-07
8.13375e-07
8.19588e-07
8.18155e-07
8.54208e-07
8.75724e-07
8.75602e-07
8.43007e-07
7.64413e-07
7.59351e-07
7.79325e-07
7.347e-07
6.89283e-07
6.40511e-07
7.51114e-07
8.45853e-07
7.8919e-07
7.91349e-07
7.8335e-07
8.25061e-07
8.26696e-07
6.71548e-07
6.8735e-07
7.50091e-07
7.73984e-07
9.89853e-07
9.16106e-07
9.36166e-07
9.33801e-07
9.68784e-07
8.1144e-07
8.09641e-07
9.4328e-07
9.73276e-07
8.73339e-07
9.23243e-07
8.76717e-07
8.01571e-07
7.21209e-07
7.35454e-07
8.46288e-07
8.39249e-07
8.95982e-07
9.56512e-07
8.7498e-07
8.38469e-07
8.16513e-07
7.71773e-07
7.1764e-07
6.80716e-07
8.05813e-07
7.21069e-07
7.45512e-07
8.28511e-07
9.08079e-07
8.05327e-07
7.89042e-07
7.47347e-07
7.93973e-07
7.76917e-07
6.73508e-07
7.46484e-07
7.95993e-07
1.05366e-06
1.0044e-06
9.50788e-07
9.14918e-07
9.65238e-07
9.23534e-07
7.85565e-07
8.32458e-07
9.43699e-07
9.22879e-07
8.92473e-07
9.24584e-07
8.13824e-07
6.85206e-07
7.17076e-07
7.79684e-07
8.50653e-07
9.10257e-07
9.72471e-07
9.03136e-07
8.56223e-07
8.29907e-07
7.95423e-07
7.63091e-07
7.19895e-07
7.36335e-07
8.99338e-07
8.05135e-07
7.7219e-07
8.21304e-07
8.64203e-07
7.73442e-07
7.81929e-07
6.99449e-07
7.32012e-07
7.28786e-07
7.37968e-07
8.26968e-07
1.09344e-06
1.01507e-06
9.59398e-07
8.70453e-07
8.8176e-07
9.42231e-07
8.81135e-07
8.06994e-07
8.7341e-07
9.46555e-07
8.92229e-07
8.59691e-07
8.61508e-07
7.6291e-07
7.7755e-07
8.3395e-07
8.77784e-07
9.13199e-07
8.94289e-07
9.29038e-07
8.87019e-07
8.25324e-07
6.6752e-07
8.46275e-07
7.95812e-07
8.11167e-07
8.5232e-07
9.4471e-07
7.93817e-07
7.70355e-07
8.87145e-07
8.38222e-07
8.01404e-07
7.4299e-07
7.39606e-07
7.39503e-07
8.1119e-07
8.68678e-07
1.06679e-06
1.02971e-06
9.80518e-07
9.16351e-07
8.49432e-07
9.01904e-07
9.47621e-07
9.62802e-07
8.41217e-07
8.28021e-07
8.89748e-07
8.33699e-07
8.38595e-07
8.55677e-07
8.45676e-07
8.7054e-07
8.88822e-07
8.68026e-07
8.80996e-07
9.62053e-07
9.06377e-07
8.78788e-07
8.68928e-07
7.45799e-07
9.27351e-07
8.57777e-07
8.65479e-07
8.23406e-07
9.05294e-07
6.48932e-07
7.65093e-07
7.85033e-07
8.27299e-07
8.06672e-07
7.79836e-07
8.14701e-07
8.65841e-07
9.15882e-07
1.09109e-06
1.04787e-06
9.94569e-07
8.87057e-07
9.12449e-07
9.44861e-07
9.59757e-07
9.50322e-07
9.32977e-07
6.37912e-07
8.05476e-07
9.30509e-07
8.90564e-07
8.98391e-07
8.74826e-07
8.68002e-07
8.60762e-07
8.6271e-07
8.87335e-07
9.97682e-07
9.64786e-07
9.16922e-07
7.9073e-07
9.84214e-07
9.30528e-07
8.95359e-07
8.4321e-07
9.24507e-07
7.24089e-07
8.5112e-07
7.40564e-07
7.5288e-07
8.44439e-07
8.40296e-07
8.45237e-07
8.61543e-07
8.88441e-07
8.69361e-07
1.21335e-06
1.13615e-06
1.04848e-06
9.81655e-07
9.74846e-07
9.89814e-07
9.0984e-07
8.66718e-07
9.60531e-07
9.27779e-07
6.32194e-07
8.81388e-07
9.8833e-07
8.94511e-07
8.62275e-07
8.43008e-07
8.42906e-07
8.71314e-07
8.78168e-07
1.06058e-06
1.02807e-06
9.97233e-07
1.01209e-06
9.75492e-07
9.06091e-07
7.97686e-07
9.08201e-07
7.17025e-07
8.58202e-07
7.40188e-07
8.14278e-07
7.48873e-07
7.75363e-07
8.87832e-07
8.80266e-07
8.67117e-07
8.49428e-07
8.25476e-07
1.29391e-06
1.23347e-06
1.17143e-06
1.10449e-06
1.05961e-06
9.582e-07
9.50953e-07
8.54424e-07
8.31908e-07
9.75352e-07
9.51249e-07
8.65218e-07
9.31197e-07
9.45365e-07
8.94406e-07
8.52895e-07
8.61517e-07
8.72453e-07
8.82185e-07
1.10927e-06
1.09117e-06
1.07798e-06
1.04427e-06
9.65654e-07
8.61569e-07
1.13316e-06
7.79589e-07
1.00794e-06
7.99221e-07
8.18832e-07
8.31238e-07
8.16703e-07
7.93123e-07
8.5819e-07
8.64549e-07
8.49228e-07
8.1286e-07
8.16715e-07
1.32195e-06
1.29205e-06
1.27355e-06
1.22998e-06
1.11918e-06
1.04828e-06
9.21465e-07
9.09339e-07
8.47921e-07
8.60617e-07
1.02536e-06
9.83349e-07
9.71143e-07
9.61445e-07
9.34691e-07
9.3251e-07
8.73006e-07
8.93157e-07
8.80533e-07
1.15325e-06
1.16217e-06
1.12636e-06
1.06195e-06
9.65984e-07
1.25898e-06
8.27857e-07
1.05358e-06
7.85169e-07
9.24305e-07
7.95255e-07
7.7092e-07
8.4036e-07
9.11855e-07
8.60157e-07
8.36855e-07
8.21555e-07
8.19841e-07
7.8534e-07
1.36853e-06
1.35379e-06
1.32783e-06
1.25606e-06
1.22959e-06
1.08809e-06
1.00036e-06
9.15377e-07
9.37442e-07
9.3571e-07
9.60033e-07
1.03244e-06
1.07766e-06
9.76091e-07
8.96471e-07
9.65913e-07
9.65533e-07
8.81228e-07
8.60104e-07
1.23245e-06
1.2026e-06
1.15758e-06
1.12242e-06
1.39245e-06
9.25386e-07
1.17398e-06
8.39287e-07
9.89937e-07
8.39187e-07
8.33462e-07
7.99547e-07
8.37627e-07
9.39605e-07
8.96788e-07
8.19694e-07
7.97329e-07
7.86365e-07
8.03112e-07
1.41253e-06
1.39888e-06
1.3232e-06
1.21312e-06
1.12937e-06
1.17903e-06
1.06451e-06
1.0097e-06
9.93974e-07
1.01254e-06
1.02666e-06
1.04094e-06
1.1262e-06
1.04169e-06
9.39396e-07
9.1226e-07
9.71359e-07
9.58521e-07
8.83713e-07
1.27226e-06
1.24235e-06
1.17126e-06
9.48282e-07
1.07085e-06
1.34133e-06
9.50619e-07
1.1127e-06
8.84411e-07
8.64743e-07
8.86783e-07
8.70164e-07
8.65474e-07
8.90137e-07
9.75355e-07
8.64007e-07
7.60396e-07
7.64529e-07
7.7266e-07
1.4229e-06
1.3797e-06
1.29336e-06
1.44067e-06
1.22278e-06
1.14137e-06
1.21512e-06
1.07645e-06
1.06658e-06
1.08394e-06
1.06751e-06
1.0765e-06
1.09521e-06
1.20573e-06
1.06388e-06
9.30614e-07
8.97303e-07
9.79565e-07
8.89029e-07
1.2869e-06
1.22588e-06
1.19918e-06
1.30814e-06
9.384e-07
1.05126e-06
1.30363e-06
9.86442e-07
1.04297e-06
9.16539e-07
9.17024e-07
9.31378e-07
9.51536e-07
9.27125e-07
9.11117e-07
8.86607e-07
8.16585e-07
7.48124e-07
7.85587e-07
1.37669e-06
1.32915e-06
1.31837e-06
1.27198e-06
1.24414e-06
1.20322e-06
1.23299e-06
1.13523e-06
1.11763e-06
1.11665e-06
1.10268e-06
1.11935e-06
1.18584e-06
1.10491e-06
1.04617e-06
1.05859e-06
9.3507e-07
9.15355e-07
1.01511e-06
1.24339e-06
1.22607e-06
1.1888e-06
1.18856e-06
1.17027e-06
9.01037e-07
1.17636e-06
1.04421e-06
1.01521e-06
9.58245e-07
9.89173e-07
9.91658e-07
9.86848e-07
9.72525e-07
8.93761e-07
8.67959e-07
8.61535e-07
8.29827e-07
7.83658e-07
1.34309e-06
1.18264e-06
1.33996e-06
1.31314e-06
1.23203e-06
1.27347e-06
1.17775e-06
1.2455e-06
1.17643e-06
1.16648e-06
1.15911e-06
1.16713e-06
1.25958e-06
1.10514e-06
1.06392e-06
1.07475e-06
1.06581e-06
9.29608e-07
8.61611e-07
1.1804e-06
1.11322e-06
1.1848e-06
1.20093e-06
9.91283e-07
1.16512e-06
8.76253e-07
1.15728e-06
1.049e-06
1.04727e-06
1.04607e-06
1.03016e-06
1.01073e-06
9.85723e-07
9.33236e-07
8.77935e-07
8.92667e-07
8.84919e-07
8.66693e-07
9.90099e-07
1.23276e-06
1.8292e-06
1.54565e-06
1.49117e-06
1.59547e-06
1.54886e-06
1.61526e-06
1.62419e-06
1.54737e-06
1.43633e-06
1.40254e-06
1.32112e-06
1.23084e-06
1.19645e-06
1.15574e-06
1.01026e-06
9.37078e-07
9.35361e-07
1.10008e-06
1.07036e-06
1.39423e-06
1.38711e-06
1.37651e-06
1.41727e-06
1.28021e-06
1.40058e-06
1.35647e-06
1.25074e-06
1.21895e-06
1.1604e-06
1.12853e-06
1.13373e-06
1.11547e-06
1.06584e-06
1.04938e-06
9.39337e-07
8.81298e-07
9.3169e-07
1.30759e-06
1.57826e-06
1.6574e-06
1.59532e-06
1.45459e-06
1.33234e-06
1.46062e-06
1.46919e-06
1.44707e-06
1.41177e-06
1.37149e-06
1.25573e-06
1.34491e-06
1.35184e-06
1.29794e-06
1.15511e-06
1.09135e-06
1.05605e-06
1.16829e-06
1.18107e-06
1.26415e-06
1.33091e-06
1.3945e-06
1.2877e-06
1.25455e-06
1.20245e-06
1.32439e-06
1.27601e-06
1.23389e-06
1.09412e-06
1.04531e-06
1.04716e-06
1.0703e-06
9.40606e-07
1.01128e-06
9.73412e-07
9.25951e-07
9.79051e-07
1.08405e-06
1.57053e-06
1.73919e-06
1.79747e-06
1.47583e-06
1.39526e-06
1.42783e-06
1.46227e-06
1.39126e-06
1.32318e-06
1.24906e-06
1.23791e-06
1.32609e-06
1.39066e-06
1.22245e-06
1.18314e-06
1.1735e-06
1.07035e-06
1.23078e-06
1.07464e-06
1.19394e-06
1.25584e-06
1.31154e-06
1.40162e-06
1.26901e-06
1.20745e-06
1.21347e-06
1.16189e-06
1.14634e-06
1.08597e-06
1.09813e-06
1.14238e-06
1.06169e-06
1.12046e-06
1.13863e-06
9.83235e-07
9.4208e-07
8.0749e-07
1.0143e-06
1.64023e-06
1.64279e-06
1.70072e-06
1.79188e-06
1.64276e-06
1.40826e-06
1.37907e-06
1.34129e-06
1.26522e-06
1.291e-06
1.22854e-06
1.33091e-06
1.36908e-06
1.28243e-06
1.23598e-06
1.22345e-06
1.11219e-06
7.43793e-07
9.92126e-07
1.13955e-06
1.24684e-06
1.35307e-06
1.3049e-06
1.34e-06
1.27158e-06
1.11584e-06
1.15579e-06
1.11864e-06
1.13973e-06
1.09116e-06
1.21275e-06
1.0861e-06
1.17476e-06
1.04779e-06
9.90216e-07
9.84991e-07
9.9098e-07
1.32082e-06
1.63968e-06
1.6453e-06
1.60595e-06
1.61487e-06
1.80523e-06
1.27983e-06
1.22854e-06
1.30974e-06
1.33197e-06
1.29087e-06
1.31858e-06
1.32969e-06
1.36856e-06
1.33686e-06
1.32505e-06
1.27945e-06
1.07068e-06
7.78201e-07
1.06453e-06
1.24545e-06
1.31742e-06
1.35334e-06
1.26932e-06
1.24003e-06
1.27958e-06
1.19237e-06
1.23351e-06
1.04907e-06
1.12873e-06
1.16108e-06
1.06489e-06
1.12952e-06
1.16101e-06
1.10062e-06
1.07676e-06
9.29527e-07
9.07286e-07
1.27943e-06
1.82345e-06
1.64041e-06
1.86624e-06
1.5771e-06
1.56425e-06
1.40446e-06
1.28671e-06
1.26052e-06
1.27313e-06
1.33996e-06
1.28994e-06
1.26378e-06
1.27871e-06
1.33226e-06
1.38037e-06
1.2367e-06
1.05645e-06
6.79442e-07
1.16036e-06
1.24477e-06
1.32799e-06
1.28048e-06
1.30585e-06
1.29728e-06
1.30149e-06
1.18426e-06
1.16724e-06
1.1162e-06
1.15088e-06
1.11804e-06
1.01459e-06
1.09385e-06
1.16298e-06
1.1326e-06
1.04498e-06
9.38574e-07
1.04145e-06
1.2073e-06
1.58058e-06
1.559e-06
1.72938e-06
1.5666e-06
1.7822e-06
1.70322e-06
1.6513e-06
1.33962e-06
1.35273e-06
1.27631e-06
1.25966e-06
1.28663e-06
1.37957e-06
1.43865e-06
1.33734e-06
1.18011e-06
1.0447e-06
8.78874e-07
1.07066e-06
1.34917e-06
1.35217e-06
1.27307e-06
1.31957e-06
1.27983e-06
1.21094e-06
1.18697e-06
1.18512e-06
1.24212e-06
1.09246e-06
1.13549e-06
1.06545e-06
1.16499e-06
1.19455e-06
1.13637e-06
1.02258e-06
9.59664e-07
9.38813e-07
1.77937e-06
1.88509e-06
1.48101e-06
2.18553e-06
1.78996e-06
1.85139e-06
1.62875e-06
2.07044e-06
1.29568e-06
1.32845e-06
1.23068e-06
1.26284e-06
1.31597e-06
1.40738e-06
1.38971e-06
1.27125e-06
1.11107e-06
1.0792e-06
8.84659e-07
1.24325e-06
1.48616e-06
1.31772e-06
1.27194e-06
1.37984e-06
1.42004e-06
1.29297e-06
1.13607e-06
1.22502e-06
1.10816e-06
1.05985e-06
1.07506e-06
1.12638e-06
1.23535e-06
1.17249e-06
1.01203e-06
1.01602e-06
9.57436e-07
1.30764e-06
1.86094e-06
1.84594e-06
1.86677e-06
2.05251e-06
2.12586e-06
1.53559e-06
1.54118e-06
1.96662e-06
1.33548e-06
1.3052e-06
1.25052e-06
1.29197e-06
1.24683e-06
1.36054e-06
1.3063e-06
1.17449e-06
1.08496e-06
1.11076e-06
9.50145e-07
1.20251e-06
1.37355e-06
1.45125e-06
1.31124e-06
1.25083e-06
1.27379e-06
1.3e-06
1.18047e-06
1.22766e-06
1.12405e-06
1.08841e-06
1.12797e-06
1.13835e-06
1.19955e-06
1.06435e-06
9.70488e-07
9.88967e-07
9.60173e-07
1.41562e-06
2.25135e-06
2.18647e-06
1.68233e-06
1.85941e-06
1.95491e-06
1.52447e-06
2.05221e-06
1.55712e-06
1.31199e-06
1.25382e-06
1.40751e-06
1.31107e-06
1.23844e-06
1.29645e-06
1.23744e-06
1.07369e-06
1.11456e-06
1.13306e-06
1.10716e-06
1.34323e-06
1.50914e-06
1.55571e-06
1.48584e-06
1.35612e-06
1.35463e-06
1.37447e-06
1.27231e-06
1.37736e-06
1.36405e-06
1.06076e-06
1.18148e-06
1.13372e-06
1.12579e-06
1.00621e-06
9.91501e-07
1.01161e-06
1.00535e-06
1.29807e-06
2.14728e-06
1.89785e-06
2.25195e-06
1.94873e-06
2.04875e-06
2.14315e-06
2.03241e-06
1.64239e-06
1.42035e-06
1.27474e-06
1.38243e-06
1.31622e-06
1.22676e-06
1.30471e-06
1.27375e-06
1.17308e-06
1.22853e-06
1.17303e-06
1.10105e-06
1.55888e-06
1.48957e-06
1.51892e-06
1.31826e-06
1.32446e-06
1.56994e-06
1.33827e-06
1.32466e-06
1.4252e-06
1.32303e-06
1.14428e-06
1.12824e-06
1.14039e-06
1.11613e-06
1.00952e-06
1.06359e-06
1.0852e-06
1.05546e-06
1.58871e-06
2.17109e-06
2.20571e-06
2.12731e-06
2.16235e-06
1.9895e-06
1.94733e-06
1.53391e-06
1.92809e-06
1.43097e-06
1.2793e-06
1.36213e-06
1.40381e-06
1.35679e-06
1.37538e-06
1.31318e-06
1.31166e-06
1.34574e-06
1.3013e-06
1.1636e-06
1.56761e-06
1.71414e-06
1.68045e-06
1.57122e-06
1.58363e-06
1.42958e-06
1.36274e-06
1.47299e-06
1.3907e-06
1.37993e-06
1.2284e-06
1.12794e-06
1.1672e-06
1.14665e-06
1.07626e-06
1.12099e-06
1.13818e-06
1.07531e-06
1.39932e-06
2.23787e-06
2.46191e-06
2.29993e-06
1.83485e-06
2.21258e-06
2.0794e-06
1.87309e-06
2.29534e-06
1.40469e-06
1.3685e-06
1.39038e-06
1.48194e-06
1.38007e-06
1.36891e-06
1.35253e-06
1.29954e-06
1.35731e-06
1.37388e-06
1.18969e-06
1.43852e-06
1.82209e-06
1.67377e-06
1.55403e-06
1.44606e-06
1.38764e-06
1.6267e-06
1.45032e-06
1.53765e-06
1.47686e-06
1.20357e-06
1.18059e-06
1.20534e-06
1.17887e-06
1.08767e-06
1.13681e-06
1.1493e-06
1.24951e-06
1.79809e-06
2.53217e-06
2.3199e-06
2.24925e-06
2.55419e-06
2.44258e-06
1.88476e-06
2.33724e-06
1.78382e-06
1.51812e-06
1.4449e-06
1.5181e-06
1.47267e-06
1.40475e-06
1.38679e-06
1.37171e-06
1.27873e-06
1.35374e-06
1.35997e-06
1.51872e-06
1.70608e-06
1.89573e-06
1.85213e-06
1.67316e-06
1.59696e-06
1.60283e-06
1.49323e-06
1.50477e-06
1.58726e-06
1.62291e-06
1.17532e-06
1.34118e-06
1.21253e-06
1.18839e-06
1.16442e-06
1.15212e-06
1.15545e-06
1.19047e-06
1.79535e-06
2.41226e-06
2.4801e-06
2.30416e-06
1.9721e-06
2.09288e-06
2.23846e-06
1.98716e-06
1.60237e-06
1.61526e-06
1.47232e-06
1.53202e-06
1.43681e-06
1.39825e-06
1.38524e-06
1.33297e-06
1.33846e-06
1.36307e-06
1.37576e-06
1.32979e-06
1.76365e-06
1.79424e-06
1.74375e-06
1.70048e-06
1.64138e-06
1.58217e-06
1.55605e-06
1.6142e-06
1.72459e-06
1.698e-06
1.26438e-06
1.30975e-06
1.31056e-06
1.18621e-06
1.20229e-06
1.15216e-06
1.192e-06
1.20538e-06
1.31048e-06
2.45495e-06
2.51548e-06
2.48841e-06
2.51992e-06
2.03248e-06
1.7421e-06
1.85935e-06
1.792e-06
1.65524e-06
1.53567e-06
1.54205e-06
1.5248e-06
1.46182e-06
1.4229e-06
1.3752e-06
1.3729e-06
1.40763e-06
1.41613e-06
1.37382e-06
1.59516e-06
1.95912e-06
2.0033e-06
1.70652e-06
1.65218e-06
1.80896e-06
1.59604e-06
1.7333e-06
1.82098e-06
1.60425e-06
1.42445e-06
1.29154e-06
1.35597e-06
1.34922e-06
1.22044e-06
1.23183e-06
1.21127e-06
1.28673e-06
1.67589e-06
2.39415e-06
2.20594e-06
2.33446e-06
2.38539e-06
2.11126e-06
2.12299e-06
1.88635e-06
2.38529e-06
1.57995e-06
1.5827e-06
1.56492e-06
1.54048e-06
1.53311e-06
1.44018e-06
1.40181e-06
1.48212e-06
1.38122e-06
1.40554e-06
1.81187e-06
2.01614e-06
2.17376e-06
2.03691e-06
1.90376e-06
1.79568e-06
1.7019e-06
1.83035e-06
1.73584e-06
1.71835e-06
1.6275e-06
1.46675e-06
1.35491e-06
1.3319e-06
1.41075e-06
1.25434e-06
1.2727e-06
1.26325e-06
1.28971e-06
2.57191e-06
2.36752e-06
2.40527e-06
2.1732e-06
1.71275e-06
2.01743e-06
2.15948e-06
2.00113e-06
1.72317e-06
1.71001e-06
1.56443e-06
1.66004e-06
1.51116e-06
1.49483e-06
1.49558e-06
1.39206e-06
1.37334e-06
1.4122e-06
1.37943e-06
1.84429e-06
2.14423e-06
1.9489e-06
2.07377e-06
2.1216e-06
1.85789e-06
1.85061e-06
1.83028e-06
1.65706e-06
1.72e-06
1.65044e-06
1.37923e-06
1.44772e-06
1.28452e-06
1.375e-06
1.31913e-06
1.25033e-06
1.2926e-06
1.25137e-06
1.70223e-06
2.25378e-06
2.57958e-06
2.56127e-06
2.24685e-06
2.04081e-06
1.83032e-06
1.88304e-06
1.86749e-06
1.78528e-06
1.63091e-06
1.60567e-06
1.54495e-06
1.46744e-06
1.47991e-06
1.45543e-06
1.35311e-06
1.37471e-06
1.36777e-06
2.09931e-06
2.31413e-06
2.56704e-06
2.1918e-06
2.13877e-06
1.97745e-06
1.83824e-06
1.84871e-06
1.69496e-06
1.74369e-06
1.46706e-06
1.52651e-06
1.3495e-06
1.3467e-06
1.28944e-06
1.35167e-06
1.24686e-06
1.20075e-06
1.19482e-06
9.73317e-07
1.34533e-06
1.75558e-06
1.7781e-06
1.72794e-06
1.70071e-06
1.61557e-06
1.62527e-06
1.56527e-06
1.47965e-06
1.38681e-06
1.36464e-06
1.2763e-06
1.21256e-06
1.19318e-06
1.27578e-06
1.07267e-06
9.53283e-07
1.05612e-06
1.33185e-06
1.68745e-06
1.83781e-06
1.70155e-06
1.70429e-06
1.77634e-06
1.65118e-06
1.48333e-06
1.43541e-06
1.346e-06
1.2895e-06
1.23242e-06
1.19701e-06
1.03569e-06
1.06495e-06
1.07839e-06
1.03387e-06
9.35687e-07
9.88742e-07
1.36576e-06
1.55846e-06
1.70616e-06
1.69221e-06
1.67108e-06
1.67935e-06
1.48973e-06
1.36488e-06
1.29874e-06
1.15408e-06
1.15804e-06
1.18969e-06
1.03748e-06
1.04648e-06
1.07502e-06
1.05454e-06
9.41496e-07
9.55852e-07
9.45389e-07
1.27397e-06
1.73542e-06
1.92452e-06
1.70002e-06
1.71847e-06
1.54557e-06
1.43047e-06
1.21406e-06
1.17124e-06
1.10372e-06
1.06191e-06
1.04569e-06
1.03372e-06
1.00465e-06
9.46919e-07
9.2914e-07
8.55807e-07
9.41312e-07
9.35071e-07
1.45482e-06
1.89027e-06
2.01115e-06
1.62942e-06
1.62131e-06
1.33722e-06
1.26044e-06
1.10998e-06
9.85674e-07
1.00015e-06
9.57197e-07
9.46097e-07
9.3943e-07
8.61173e-07
8.87282e-07
8.51827e-07
7.95585e-07
8.66936e-07
9.11636e-07
1.17118e-06
1.98733e-06
2.05706e-06
1.70899e-06
1.5867e-06
1.41559e-06
1.15267e-06
1.04625e-06
8.57846e-07
9.50398e-07
9.78348e-07
9.55608e-07
9.05939e-07
8.43891e-07
9.10269e-07
8.32265e-07
7.71254e-07
8.46203e-07
8.5484e-07
1.729e-06
2.15523e-06
2.10934e-06
1.72063e-06
1.55148e-06
1.26829e-06
1.10025e-06
8.99992e-07
8.39147e-07
8.98116e-07
9.03287e-07
9.06074e-07
8.5326e-07
9.04244e-07
8.90483e-07
8.09743e-07
7.78784e-07
8.52304e-07
8.49616e-07
1.56051e-06
2.1653e-06
2.18839e-06
1.66892e-06
1.56107e-06
1.24567e-06
1.00446e-06
8.91865e-07
8.4293e-07
8.97004e-07
9.1483e-07
9.05082e-07
8.81936e-07
8.73164e-07
9.20822e-07
7.97088e-07
8.1013e-07
8.4477e-07
8.67133e-07
1.57958e-06
2.09757e-06
2.07015e-06
1.60354e-06
1.43387e-06
1.11036e-06
1.07549e-06
9.18973e-07
9.11719e-07
9.3285e-07
9.72609e-07
9.57985e-07
9.96763e-07
8.89581e-07
9.05944e-07
8.33081e-07
8.34844e-07
8.04587e-07
8.36636e-07
1.4723e-06
2.00367e-06
2.13036e-06
1.58699e-06
1.40984e-06
1.19631e-06
1.03978e-06
1.0252e-06
1.01541e-06
1.0101e-06
1.05026e-06
9.11924e-07
1.00533e-06
8.5607e-07
7.98619e-07
8.19309e-07
8.30123e-07
7.95873e-07
8.12259e-07
1.30383e-06
1.90359e-06
2.22831e-06
1.88874e-06
1.47323e-06
1.16172e-06
1.09218e-06
1.09316e-06
9.97915e-07
1.03754e-06
1.05845e-06
8.81246e-07
8.27808e-07
8.13142e-07
7.97397e-07
7.99507e-07
8.1853e-07
7.97612e-07
7.91842e-07
1.53096e-06
2.02593e-06
2.0008e-06
1.85448e-06
1.45935e-06
1.23099e-06
1.17004e-06
1.06121e-06
9.38403e-07
8.87295e-07
8.9774e-07
8.65562e-07
7.77005e-07
7.91126e-07
7.7964e-07
7.9134e-07
7.76948e-07
6.9649e-07
7.80979e-07
1.17987e-06
1.71723e-06
1.75777e-06
1.61726e-06
1.28825e-06
1.13187e-06
1.06839e-06
9.72116e-07
8.89283e-07
8.09308e-07
7.97163e-07
8.57627e-07
8.05328e-07
7.27623e-07
7.95797e-07
7.89054e-07
7.40392e-07
6.87078e-07
7.15099e-07
1.41978e-06
1.65622e-06
1.70454e-06
1.69433e-06
1.43023e-06
1.2171e-06
1.02609e-06
8.85213e-07
8.38872e-07
8.22412e-07
7.93779e-07
7.20353e-07
8.18238e-07
7.44416e-07
7.02244e-07
7.32849e-07
7.16218e-07
6.9456e-07
7.41865e-07
1.17106e-06
1.10863e-06
1.62994e-06
1.68463e-06
1.6238e-06
1.17136e-06
1.00566e-06
9.84442e-07
8.89744e-07
7.96922e-07
8.00544e-07
7.87212e-07
7.50169e-07
7.96293e-07
7.42495e-07
6.93496e-07
7.6769e-07
7.35194e-07
6.73213e-07
8.249e-07
1.70667e-06
1.99479e-06
1.52128e-06
1.38817e-06
1.24797e-06
1.01944e-06
9.27832e-07
8.8757e-07
8.09291e-07
7.3234e-07
8.02051e-07
7.81728e-07
6.79902e-07
7.66821e-07
6.83309e-07
7.60824e-07
7.97563e-07
7.41563e-07
1.16344e-06
1.36871e-06
1.59228e-06
1.68849e-06
1.41084e-06
1.15671e-06
1.07207e-06
9.78727e-07
8.5154e-07
8.21993e-07
7.60101e-07
7.19087e-07
7.88995e-07
7.50025e-07
6.98604e-07
7.55199e-07
6.86234e-07
8.13519e-07
8.09756e-07