/*--------------------------------*- C++ -*----------------------------------*\
| =========                 |                                                 |
| \\      /  F ield         | foam-extend: Open Source CFD                    |
|  \\    /   O peration     | Version:     3.1                                |
|   \\  /    A nd           | Web:         http://www.extend-project.de       |
|    \\/     M anipulation  |                                                 |
\*---------------------------------------------------------------------------*/
FoamFile
{
    version     2.0;
    format      ascii;
    class       volScalarField;
    location    "172800";
    object      sigmaEq;
}
// * * * * * * * * * * * * * * * * * * * * * * * * * * * * * * * * * * * * * //

dimensions      [1 -1 -2 0 0 0 0];

internalField   nonuniform List<scalar> 
21211
(
26824
26858.6
26852.3
26781.7
26639.3
26518.1
26180
25976
27094.8
30999.5
31027
30971.8
31061.4
30839.5
30558.6
29580.3
28401.8
34028.2
26721.1
26752.6
26737.6
26660.1
26534.9
26315.2
25810
25234
27738.3
29088.4
29116.7
29072.5
29140.1
28965.7
28603.1
27572.8
26114.4
30193.2
28287.9
28315.2
28301.5
28224
28188.8
28005.4
27623.7
28184.1
30890
30384.1
30419.4
30354.3
30446.3
30285.1
29930.8
28938.3
27596.8
31130
29587.9
29609.6
29595.4
29517.4
29502.3
29300.6
28815.2
28644
32228.8
30805.4
30844.4
30804.9
30852.6
30671.6
30265.8
29180.4
27297.3
30696.6
31388.1
31392.7
31379.3
31324.7
31382.3
31216.6
30886.1
32145.3
36572.3
30700.5
30740.4
30713.7
30643.8
30462.8
30024.4
28811.4
26900.2
29365.3
35077.6
35074.8
35060.5
35000.8
35044.5
34906.9
34463.6
34879
39610.7
33092.4
33128.1
33105
33038.9
32849
32424.3
31295.9
29091.7
30476.7
40983.2
40968.4
40963.6
40959
41158.1
41074.9
40984.4
42975.4
48340.6
37185.8
37194.2
37165.3
37099.3
36933.4
36507.3
35321.8
33267.9
35136.2
43786.7
43762.5
43776.3
43765.8
43712.9
43793.9
43524.2
44099.2
48917.9
39134.3
39138.8
39108.3
39040.1
38867.5
38391.2
37209.8
34841.7
35897.9
49700.3
49658.3
49475.7
49489.9
49496
49759
49728.4
51821
56948.1
45056.7
45022.6
44995.5
44928.8
44749.1
44262.5
42984.9
40382
40437
62334.9
62290.7
62429.3
62463.4
62512.6
62595.2
61497.7
62292
67742.1
50352.1
50310.4
50273.1
50210.8
50041.3
49540.2
48239.1
45921.3
46900.9
62883.1
62916.8
63240.4
63276.7
63286.5
63404.3
60800.3
67615.6
70598.9
55014
54975.4
54931.9
54840.2
54599.4
54126.7
53001.9
49241.3
49319.5
84779.8
84804.5
84848.8
84894.1
84962.8
84673.9
63577.5
81513.3
87590.8
61993.5
61982.5
61959.3
61890.1
61717.3
61228.3
60905.5
57361.7
56460.1
88409.8
88474
88488.1
88497.4
88488.5
88330.4
89748.3
90726.1
94962.8
67041.3
67050.6
67026.4
66948.1
66725.8
66115.1
64541.6
61590.9
61168.2
102185
102222
102228
102229
102209
102155
102204
102544
105809
74808.3
74819.8
74790
74705.1
74478.9
73902.4
72482.5
69463.1
68985.6
119375
119413
119421
119425
119413
119366
119301
119292
119342
85752.8
85775.3
85750.4
85673.5
85465.9
84923.9
83538.7
80295.2
76552.6
131110
131161
131173
131180
131168
131107
130981
130828
130699
93147.3
93160.1
93133.2
93052.1
92831.6
92247.7
90721.8
86991.1
82039.4
138579
138640
138653
138658
138640
138577
138487
138496
139124
101098
101117
101092
101012
100793
100214
98736.4
95313
91908.1
147950
148022
148036
148042
148024
147949
147826
147776
147914
105873
105889
105865
105788
105572
104996
103518
100110
96835.6
147292
147374
147391
147400
147387
147326
147223
147040
145042
113817
113844
113827
113768
113588
113090
111763
108502
104812
39989.8
40027.9
40034.3
40048.3
40229.9
40436.6
40348.1
42273.2
39324.6
33431.9
33409.4
33586.5
33684.7
27017.9
34008.7
33449.2
24719.2
22811.3
29602.9
29150.1
33592.3
33267.9
30590.1
28957.4
28478.9
30863.6
27791.9
38292
38319.2
41979.6
42107.8
42015.2
38509
38556.9
44138.8
38945.4
39222.1
39223.1
39388.1
39316.2
39299.1
39657.3
39763
40744.7
34654.3
32352.4
32357.5
32688.4
32729.6
32704.8
32656.8
32612.8
33238.1
29712.8
30671.6
30687.2
30779.6
31005.1
30972.7
30938.3
30944.4
31557.2
28261.5
28671
28683.1
28663.1
28937.7
28900.6
28846.6
28849.1
29594.2
26694.2
27464.5
27472.2
27462.3
27535.7
27600.3
27534.4
27473.7
27546.1
26026.6
31064.4
31067.4
31059.1
31028.2
31267.5
31161.5
31106.4
31438.8
28794
29428.8
29430.6
29423.5
29402.5
29460.9
29357.9
29254.5
29280.7
29827.5
38390.9
38386.5
38378.7
38358
38299.8
38401.4
38302.9
38292
37099.9
40035
40041.2
40031.2
40007
39956.9
40035.8
40056.9
40271.2
38639.3
45951.3
45958.1
45948.2
45925
45880.8
45823.6
45835
45949.9
43750.6
53396.7
53403.7
53393.2
53369
53322.3
53253.2
53216.2
53149.4
51182.7
58078.5
58085.3
58073.8
58047.5
57995.8
57915.7
57852.1
57718
54936.3
57762.1
57767.2
57756.3
57731.3
57683
57613.3
57586.4
57654.9
56334.7
52776.7
52779.8
52769.8
52746
52699.1
52624.6
52560.5
52522.4
51828.5
50829.5
50829.8
50822.2
50803.9
50770.2
50728.8
50739.1
50748.8
48495.4
26338.9
26373.1
26380.4
26316.1
25954.9
25660.5
24638.9
22680.2
27680.9
25072
25100.5
25156.5
25180.4
25483.8
24672.3
23821
23768
28303.4
24738.4
24657.2
24174.3
24279
24204.2
24292.2
23342.2
20984.9
30620
29026.6
29080.1
29144.7
29157
29035.7
28652.6
27838.1
27113.1
35174
26040
26042.9
25957.5
25869.6
25771.1
25549.7
24824.1
23830.1
31855.4
23029.6
23035
22998.2
22975.3
22881.5
22623.8
21946.9
20893.9
26137.5
22632.8
22638.7
22622.8
22581.9
22493.7
22249.7
21546.1
20449.2
28221.2
20875.1
20878.6
20858.5
20801
20701.4
20452.9
19828
18801.4
26617.9
21666.6
21661
21640.8
21589.8
21483.7
21231.2
20507.1
19183.8
27698.4
23685.9
23683.1
23663.9
23618.4
23498.6
23255.4
22660.3
21499.6
27403.6
24527.5
24504.7
24479
24418.8
24273.2
23964.7
23164.4
21755.7
27203.2
26678
26663.8
26636.1
26569.7
26413.4
26031.2
25168
23530.7
28025.8
29235.6
29213.9
29185.9
29118.1
28962.5
28596.4
27797.7
26439.8
30791.6
31352
31337
31308.6
31240.3
31087.7
30752.8
30039.9
28857
32222.8
34557.9
34538.8
34510.5
34444.7
34299.8
33984.2
33306.6
32110.6
34258.2
36129
36106.8
36076.6
36007.4
35855.8
35527.3
34819.6
33460.9
34043.4
37957.4
37934.3
37904.5
37836.9
37690.2
37379.5
36747.4
35670
36060.5
36094.4
36068.3
36034.8
35960.2
35799.8
35461
34774.8
33733.8
35798.9
38709.2
38686.3
38659.4
38599.9
38473.8
38213
37694.4
36834.1
37838.3
27148.9
27657.1
26235.1
24652.5
24969.6
23621.1
22365.5
22172
21350.7
20793.5
20335.7
20199.5
20229.6
20146.5
20295
19377
19908.4
20206.2
20282.7
27264.9
22593.8
22530.6
21255.3
20035.7
19037.9
18615.8
18007.8
17765.1
17014.8
16389.8
16698.3
18114.3
18133.7
19056
18775.7
18051.6
18250.7
19042.4
28624.9
28236.9
28253.5
24247.6
22585.9
21859.7
20850.7
20048.1
19308.2
19103.2
19455.1
19720.4
20657.5
21174.4
21442
21261.2
18652.8
18434.8
19502.5
25626.9
22550.4
20585.5
20433.2
19820.4
19189.5
18621.2
18409.4
17865
17966.2
16729.9
16397.5
17126.1
19110.2
19137.3
19192.3
18240.7
17121.4
17342.6
31253.5
26552.2
24742.1
24456.9
22236
20264.9
19695.8
18668.9
18248.7
17587.5
18323.3
19287.4
20660
21958.6
21785.6
21103.6
19753.6
17568.7
18557.5
24560.9
23402.5
20848.6
18336.3
18566.6
19030.9
18509.4
17923.1
18251.5
17407.5
17735.2
16859.5
16654.8
18210.3
19357.4
18534.2
18050.2
17409.1
16733.8
29576.6
28162.2
23208.2
20797.3
21314.7
20868
19469.9
20096.2
18800.9
18177
17999.6
19448
20410.4
21079.9
20861.1
21280.9
19927.2
19317.9
18437.5
23513.3
22629.3
21008
18070.8
17175.7
17052.4
18914.5
18306.6
17816.9
17537.6
18110
17242.8
20306.6
18100.7
17961.4
18293.1
17759
17709
17480.9
27289.1
26090.6
25483.6
19659.1
18383.7
21711.7
20524.6
20802.4
22574.9
20629.8
20083.4
19613.3
19698.1
19572.7
20185.7
20067.4
20396.6
20105.2
20667.7
23074.3
20714.3
19119.9
21188.4
19084.5
16668
15835
19190.1
19451.7
18091.3
16890.5
19336.4
19672.8
18552
17842.1
17544.1
17978.3
17784.8
18017.4
25604.4
24591.7
24147.9
22256.1
20013.9
21221.5
22959.8
21643.4
21578
23579.2
21978.6
21146.9
19868.9
18536.6
19727.5
20230.5
20561
21391.7
22357.4
23681.2
22455.7
20370.7
20162
20323.6
18630.9
17522.4
16828.8
18867.6
20993.3
19958.9
19727
19966.3
20385.6
19613.8
16530.6
16636.7
18006.2
18984.2
27498.7
25390
25421.8
24992.6
25127.5
22062.6
21283.5
24059.5
24310
22031.5
23414.6
22305.3
20308.3
18315.7
18317.1
20779.1
21349.6
22918.5
24907.9
24349.1
22962.6
21883.3
20524.4
18540.1
18754.6
20019
18424.9
19291.7
20896.9
22296.4
20292
19661.4
18888.8
19410.8
18148.8
16367.1
17878.7
19373.5
29676.8
28113.8
26556.4
25406.3
25949.1
25151.1
21051.2
21956
24250.6
23846.2
22873.2
23249.5
20279.8
17769.3
18240.3
20004.6
22075.6
24331.5
25980.6
25026.5
23353.2
22262.5
20569.7
19282.1
18541.8
20681.8
22177.6
20675.8
19781.4
20385.8
20976.4
19391.6
19049.6
17514
17864.5
17744.2
18147.5
20419.4
31165.2
29014.6
26960.1
24641.3
24119.5
24708
24109.6
21832.2
23382.3
24440.2
22606.2
21147.5
21237
19225.3
19919.4
21788.5
23527
24648.9
23921.9
25602.5
24027.8
21699.8
19429
21452.3
20437.7
20904.8
23874.8
23138.8
20187.1
19062.9
20817.8
20339.8
19745.6
18408.1
18096.2
18454.8
20337.6
22325.5
31259.7
29275.4
27444.5
25360.3
23721.5
24341.9
25164.2
25493.6
22570.6
21409.3
22462.5
20781.9
21075.6
21855.5
22225.6
23161.2
23849.3
23080.2
22964.1
26363.7
24436.8
23091.1
22046.5
21486.7
23907.9
22350.2
21925.6
22267.9
22029.1
17177.3
19018.5
19120.5
20283
19752.5
19558
20663.7
22462.3
23928.3
31990.6
29925.1
27652.3
25063.4
25027.2
26036.8
26280.5
25162.8
23621.2
17693.3
20285.3
23470.5
22506.3
23548.4
23168.1
23086.4
22670.7
22531.2
23155.6
27274.8
25880.9
23928.1
22759.7
25804.2
24560.3
22589.9
21560.1
22311.5
19168.3
20408.3
18181
18491.8
20617.9
20821.3
21352.7
22260.5
23154.7
22394.1
35083.5
32106
29114.8
27096.7
27198.2
27524.9
25002.1
23091.7
23722.6
23043.8
17761.8
22637
25120.7
23384.5
22650.8
22171.9
22137.9
22825.7
22890.4
28786.9
27476.5
26291.5
26807.6
25894.2
23110.7
21871.9
22666.4
18758.8
20594.3
19349.7
19608.3
18639
19447.1
22184.3
22291.7
22305.9
21720.3
21128
37235.1
34805.1
32491.9
30682.3
29635
26531.3
25071
22600.8
21572.1
23897.7
23658.4
22474.3
24457.9
24655.9
23214.5
22515.2
22768.9
23140
23113.1
30467.2
29319.5
28921.4
27772.4
24712.3
23762.6
26726.9
20895.7
23595.8
19536.9
19909.3
20394.5
20007.8
20088.2
21608.8
21901.4
21476.6
20755.2
20780.2
38606.8
36968.6
35911.9
34483.4
30686.9
27489.1
24374.2
23380.8
22101.6
22410.6
26010
25652.2
25656.5
25476.2
24535.9
24414.1
23473.4
23864.1
23263.6
32142.2
32010.5
30450
27848.6
26458.2
29313.5
22397.4
24636.5
20479.6
21998.3
19192.9
19415.5
20614.4
22806
21960.6
21275.2
21015.8
20892.3
20366.1
40553.1
39747.9
38461.4
35025.2
31844.5
28203.7
25538.2
23850.9
24176.7
24677
25741.2
27667.5
28716.3
26261.1
24571.7
25933.7
25842.8
24172.5
23119.8
35084.1
33661.3
31299.3
29789.8
31747.5
24811.6
26945.3
21950.8
23539.3
20623.6
20211.9
19540.1
21018.8
23806.9
23264.2
21297
20653.4
20564.2
20947.4
42990.3
41949.4
38424.2
34746.1
33881.1
29477.6
27325.9
26122
26330.2
27334.9
28086.3
28602.7
30841.4
28270
25817.5
25327.1
26809.4
26333.8
24288.5
36882.3
34838.4
31689.7
27693
28365.1
30528.7
24677.5
26238.3
22238.4
21629.3
22090.9
21911.5
22249
23421.7
25469
22809.9
20308.8
20338.7
20757.9
43727.1
41103.8
37455.7
37001.8
34268.3
35237.7
31403.1
28775.4
28890.6
30105.9
29874
30042.9
30395.1
33450.9
29452.8
26536.4
25768
27576.4
24625.2
37095.4
34484.3
32514
31691
27673.2
27586.1
30004.9
25085.3
25375.9
22986.4
23613.4
24310.3
25044.4
24755.9
24538.5
24056.7
22120.4
20491.8
21450.9
42074.3
38908.9
37955.6
36425.4
35088.7
34553.6
34053
31463.2
31339.8
31949.8
31359.8
31680
33714.7
31699.6
30179.2
30188.3
27363
26638.5
28605.4
36075.1
34361.9
32523
31795.8
29548.8
26566.2
29020.6
26510.4
25745.8
25001.9
26131.5
26703.8
26656.2
26440.1
24779
24094.2
23956.6
22957.8
22131.1
40428
39068.2
38820.1
37861.4
36317
36641.7
35232.6
35352.6
34529
34150.8
33580
33743
37017.2
33025.1
31565.5
31565.8
31102.6
27150.5
24669.5
34596.6
32320.4
32421
32002.9
29078.4
28763.8
26766.8
28771.3
27836.7
27945.3
28744.9
28667.2
27872.9
27774.3
26466.5
24915.5
25174.3
25283.1
24655.3
40039.9
61843.9
76097.1
75074
73028.5
71750.5
67080.1
64405.9
62071.8
56598.9
50580.6
47745.8
43979.7
39053.6
37632.8
35722.6
30815.6
27866
27887.7
58308.8
59650.9
68525.1
66714.3
63802.8
58550.3
51969.6
53924
49136.5
43309.3
41262.9
38047.3
35691.9
35090.5
33234.3
30492
30345
27783.5
25850.9
39289.1
61008.7
73282.5
75288.6
72844
71147
65492.4
61582.7
58519.2
54703.6
50020.3
49448.8
43495.3
43767.2
43267.3
40560
34254.1
32232.8
31205
61254.2
61036.9
64051.8
65327.1
62431
58133.5
54816.1
51954
50964.9
46595.1
42997.8
36566.3
34775.2
34081.8
32099.5
27546.6
29798.4
28667.2
26861.6
42217.6
57746.5
73909.7
77148.4
75082.6
72385.1
68247.6
65486.5
59858.9
56115.8
49918.5
45674.8
42528.6
44004.6
46067.4
37548.6
35257.3
35095.7
31988.3
61647.2
56695.2
63981.5
66926.4
67246.2
66881.6
55412.6
51602.5
48573.6
44983.5
42231.5
38352
37999.9
36840.3
31947.1
33158
33522.1
28566.3
26443.7
38088.7
53933.8
80539.7
80851.8
80073.1
76110.7
68443.7
63214
60301.6
57221.8
48442
48209.1
43424.5
45292.3
45854.3
38977.5
38143.4
37035.2
32997.4
47279.6
57607.8
65988.2
70341.6
69815.5
64192.9
60859.6
56004.7
48228.9
46770.5
42657.7
40850.7
38399.6
38463.3
33736.6
35786.5
31488.1
28513.5
26912.6
47035.7
63974.9
85097.7
81762
76710.6
73563.7
67082.8
62212.2
59033.1
54510.6
54042.7
48502.3
46616.5
46713.6
44107.7
42228.3
40997.8
38402.9
31345.9
49250.3
62926.1
71072.5
73089.4
70817.8
63724.6
59445.9
58422.8
52017.6
49807.7
40884.6
41634.9
40645.2
35330.6
36073.6
36050.5
32485.2
29835.6
25323.9
45803.9
64307.2
97279.6
87921.3
92721.5
75269.1
72183.6
69201.7
61718.7
54439.6
50460.1
51539.7
47304.8
45358.7
42675.5
42571.5
43140.8
37205.5
30554.2
42836.4
67318.5
73878.2
75322.2
70658.6
69368.4
63758.6
58094.4
50305.1
49825.5
45598.8
43457.1
40260.6
34486
36330.4
36207.7
32565.5
28783.5
25270.1
52220.5
62914.1
88275.5
87338.7
86491.2
78728.3
78074.1
70232.6
63264.5
57282.4
55351.5
50477.4
46833.8
45502.2
46038.2
47064.2
42250.7
35434.1
30507.7
51366.2
65004.2
78667.7
79270.2
73216.5
71214.7
64181
56673.4
52666.2
52769.1
51550.4
43774.3
40831.8
36473.9
38543.6
36388.3
32592
28003.1
26408.3
47530.4
97396.3
107491
85930.4
117132
87098.9
79355.6
70246.6
66699.8
57117.7
56781.3
50050.7
48142.3
47120.1
47229.9
45584.1
39962.4
32738.7
30431.1
52673
73426.9
85600.9
76806.3
74660.9
78112.1
74244.3
63429
52348.3
53113.3
46555
42416.1
39588.8
39261.1
40640.9
35797.8
29380.4
28866.1
27131.8
61873.9
101914
102483
106404
116467
101992
74342.3
71705.2
72536.4
60048
57218.4
51004.2
50278.3
43883.4
46514.4
43608.9
36512.7
31896.3
31804.4
58596.9
75077.3
86349.7
86734.7
77914
73129.1
68833
66723.6
57244.2
55348.2
48170.1
43290.5
42320.2
40934.8
40397.9
33125.8
28450.1
29094.9
27338.6
68311.4
126462
127686
101354
106351
96454.7
76810.8
84965
67008
60067.2
55924.4
57205.2
51874.6
43356.2
45636.8
41779.2
33575
32717.8
33346.9
66599.3
84283
95756.1
96941
88316.6
77823.7
72546.1
69300.4
59775.9
60690.8
51242.5
43891.7
44848.3
41180.8
38120.8
31260.5
30111.6
29850.5
28306.7
65359.9
122149
128402
137883
101824
111749
105945
82831.7
69763
67417
57022.9
56287.8
51723.8
44186.8
46116.5
43521.9
36058.8
37010.5
34919.9
67641
94201.7
96942.1
97953.7
82995.3
80104.8
86166.5
68733.4
63325.2
60904.8
49689.7
45957.1
42959
41235.5
37284.5
31692
32350.3
31484
29424.4
81880
119369
138994
129428
133149
112647
93930.7
79990.3
81005.5
67299.9
58332.8
54873.2
54448.2
49854.5
48810.5
43669.9
40590.8
40945.6
38581.1
86074.1
102476
108675
105546
97251.8
91963.2
78919.5
69991.8
70714.9
58983.4
55393.8
47765.5
41785.9
41561.8
37959.3
33937
33940.9
32813
29927.5
74187.7
122006
155292
148249
106612
121656
107965
84367.1
98942.2
65698.1
62501.3
58532.2
57453.5
49956.3
47703
45129.7
40213.5
41363.8
40157
75518.7
95363.1
118766
110819
96883
85300.5
79394.4
86172.3
70632.2
64496.4
56247.5
46714.4
43377.6
42616.4
39272.2
34554.4
34544.7
33424
33983.7
98152.3
126587
141327
160598
158281
138195
95110.9
109217
78185.3
70673.3
64754.9
62271.1
56577.6
50726.8
48138.9
46806.5
40158.5
41669.2
40338.5
90192.8
106089
122830
120059
107213
96635.2
88936.1
77011.9
71739.1
69552.8
63190.7
48413.7
48823.7
43483.7
40126.9
37500
35902.5
34449.8
33983.1
97817.2
153752
173113
139965
120019
124173
111863
95982.2
81353.5
78060.2
68556
63869.5
56639.4
51208.1
48459.1
45611.5
43713.8
42865
41941.6
88375.9
110499
117397
114403
109070
99224.1
88743.8
80338.3
78298.6
75584.4
65819.1
52015.3
49492.7
46422.9
41412.7
40237.2
36744
36055.8
35017.7
92984.4
162689
162181
167129
163678
110535
95150.6
99036.4
86341.3
79675.9
69800.2
64768.6
59596.6
55644
50288
48488.4
46482.7
45530
44058.5
89964.8
103525
130367
129065
106091
97352
100018
83720
84440
77585.7
62334.4
56680.9
49402.8
49140.6
47188
42147.9
39934.3
37878.6
38232.7
107214
163982
157244
161836
146429
120559
116416
95423.2
107505
74966
72681.1
66690.9
60434.8
57419.9
52645.8
49648.1
51079.4
45713.8
44480.9
111191
121406
134938
128601
116751
105070
95514
95765.1
84237.8
69901.6
65082.5
59101.7
51881.1
49114.7
49548
43408.4
41928.1
39844.2
39082.3
170384
161849
160395
157857
110952
119328
115004
94797.8
82805.4
81454.9
73848.6
66775.3
62455.2
55322.2
54871.9
48938.2
47095.8
46841.1
43997.3
114261
132128
134784
139193
128019
106452
100315
94206.3
80337.9
74350.7
67136.2
57997.9
55618.7
48194.6
48460.4
44683.5
41838.8
40586.2
37898
115827
153107
169366
166793
135035
118270
99737.1
89199.7
85880.9
83030.4
72935.2
67958.3
62069.6
56886.4
53691.6
51573.4
45735.6
45458.2
43259.7
124952
137669
149744
132416
123526
108463
97736.1
95568.2
82163.5
78610.2
63115.9
62780.4
53316.2
50102.3
46260.5
45195
40956.4
38030.5
35832.2
39208.2
64044.3
76612.6
82570.5
77170.4
74768.8
65521.9
60906.1
58024.7
52909.2
45675.5
44628.1
41075.3
37208.4
36398.8
38343
31998.2
27828.7
30384.8
47572
75897.1
85503.1
82688.3
73939.6
72377.1
62638.9
54439.2
50836.7
44636.1
41111
39083.7
37138.2
31143
31955.3
31740.3
29959.9
26580.6
28098.6
51992.2
75470
79783
80214.6
72061.1
67673.6
52926.4
46597
42594
36158.5
35008
36000.7
30896.3
30714.4
31235.6
30034.8
26493.3
26844.7
26880.1
52738.6
75344.2
87392.9
75439.7
67446.2
56209.9
46997.4
38553.4
36139.5
32623.2
31005.7
30722.7
29806.4
29046.7
27338.8
26072.9
23598.7
25943.7
26444.3
50991.5
74510.2
84354.7
72027.9
65409
46152.4
40855.4
33398.3
29285.7
28612.1
27364.2
27044.7
26664
24600.7
24902.7
23649.9
21862.5
23805.4
25593.2
46929
77119.6
79566.1
71901.4
54259.7
44547.9
35522.6
30411.7
24440
26782.8
26907.6
26921.9
25661.8
23499.9
25051.6
22765.7
20972.1
23019.1
23573
56427.6
73033
78344.1
64042
52796.5
38897
31380.7
25421.2
23465.2
24919
25013.6
25255.3
24006.9
25417.7
24500
21988.4
20708.4
22888.5
23099.2
51993.9
76316.1
76935.5
65346.2
49802.5
36425.5
28126.2
24353.3
22832.8
25074.6
25200.2
25199.8
25057.4
24563.2
25329.8
21406.9
21357.2
22669.2
23029.6
58665.7
79202.7
75569
58418.9
46158.4
32973.1
28617.4
24652.3
25385.7
25542.3
27256.1
27003.7
28504.4
24322.3
24987.1
22034.6
21583.9
21539.5
22077.4
53250.6
70007.6
77061.9
54696.5
46228.1
35206.4
28843.3
27159.1
28099.9
28017
29622.3
25180.2
28977.6
23207.5
21544
21321
21592.7
21006.4
21049
50604.7
74282.9
82064.4
60144.7
46855.5
36090.8
31194.9
29661.1
27621
28754.1
29863.7
24121.6
23399.6
21823.3
21610.4
21138.5
21265.2
20689.7
20201.9
58708.7
83663.2
70109.3
59812.7
48685.4
37600.3
33777.6
29969.6
26137.4
24961.4
25278
23586.5
21692.7
21270
21207.1
21102.4
20430.5
18137.6
19676.8
46061.8
70897
69314.7
61907.3
46213
37499
32817.6
28736.9
25833.8
23223.9
22306.5
23509.1
22189.8
19743.3
21268.2
21262.9
19354
17848.7
18201.9
52732.9
69881.4
73762.4
63788.7
50856.6
41928.4
34072.4
27181
24715.4
23584.2
22202.6
20223.8
21947.7
20175
19001.6
19260
18701.9
18086.1
19002
46748.9
49265.8
70897.8
67291.4
56704.5
40248.3
32852.5
30022.9
26672.9
22943.6
22031.4
21537.5
20174.1
21354.6
19536.3
18352.8
19830.9
19129.8
17657.5
37084.4
73812.7
93921.9
57161.7
49756.8
43267.2
33815.3
28312.4
26041.2
23217.3
20672.7
21736.8
20836.5
18441.5
20273.3
18185.1
20036.8
20656.8
19492.5
47746.7
61130.3
69436.3
62328.6
47575.2
38656.2
34590.6
29696.1
24551.6
23123.8
21211.9
19977.3
21161.7
19956.9
18860.4
20008.6
18552.3
21498.8
21268.5
66331.1
63286.9
66203.7
59697
48709.6
39314.3
32376.3
29845.2
25183.3
23189.2
22923.2
20394.9
21601.8
21431.2
18926
20916.3
19795.4
19596.6
21140.4
55022.6
67198.5
60842.8
54164.6
44846
39391.6
31710.2
28957.4
26142.5
22532.3
22912.3
21162.1
20303.2
21606.2
20133.4
18087.1
20179.9
18086
19776.8
55506.4
63759.3
68678.5
69559.5
65961.2
58622.8
54718.1
53033
45702.3
40297.5
38897.9
35159.5
31245
32439.2
30157.7
25041.2
24384.6
24866.3
24208
63987.2
78511
76618.3
68605.9
62384.3
55377.2
48831.5
44665.8
37939.4
36003.8
34126
30982.3
28637.6
31242.9
30475.8
27544
24238.3
23715.7
22963.3
65961.5
76550.1
75350.8
68323.1
56448.2
48237.5
42172.8
37390
32093.8
30452.9
31250.9
27802.9
26600.7
28015.3
25453.1
23539.5
22836.8
23440.3
25345.6
66886.8
69199.1
73200.8
66528.2
52797.9
43278.4
37100.7
32561.5
28521.2
26324
28086.4
25269.3
25087.1
25101.1
25498
21597.8
20926.1
22698.8
21908
61819
65763.1
74195.7
62724.6
46839
37644.8
30217.6
27488.6
25485.6
24748.5
23187.1
26014.5
22715.4
21202.2
23836.1
19961.2
20013
21400.5
21863.3
57969.1
75130.1
69715.3
57248
44548.4
34490.6
27035.7
24257.3
23320.1
23523.6
22603.1
22846.4
21626.7
20532.3
22757.8
20451.1
19275.4
21409.5
20484.1
60972.8
66322.3
61608.1
54117.2
40991.4
32075
26747.3
23867.6
21865.8
22237.3
23070.8
22879.6
22111
21007.8
23508.3
20086.6
18361.5
19749.1
18697
61387.4
67123.6
65736.6
52695.1
39013.9
31887.8
26920.8
23044.9
22742.4
20974.7
22894.7
21192.1
23446.7
20669.4
21489.2
18628.8
18715.3
19832.3
17989.6
61836.4
63774.6
66302.2
51093.1
36729
28980.6
26721.6
24849
23068.3
22104.6
23852.4
23051.8
24783.8
20862.4
20854
18442.9
19006.6
18060.1
17634.7
57913
61465
67076.1
50642.1
37398.4
31951.6
27592.9
25969.9
24223.6
26274
23971.2
20921.7
21998.6
21397.4
18283.1
19514.2
18906.4
18087.3
17246.8
57382.3
63021.7
65326.9
48815
37973.1
33503.9
26808.1
26325.3
25163.9
24707.9
21734.7
18622.6
18448.3
19164.1
18984.6
17750.9
18433.2
18443.9
17240
54799.8
64799.3
59297.6
51750.6
40474.9
35524.9
29822.4
26076.6
24145.1
19988.3
19353.4
21538
18878.6
18852.3
18771.8
15967.2
16503.2
17851.1
17576.4
55240.6
55990
54306.1
47416.6
40942.4
34544.1
28434.1
26102.8
23813.8
20449.4
18148.1
20566.5
19337.6
17818.8
18879.5
18105.5
16245.1
16777.9
17882.4
53750.3
54252.7
54700
51073.3
43086.9
35937
31202
24019.7
21579
21873.2
21596.8
16433.2
19533.9
16566.9
16985.4
18616.5
17699.3
16190.6
17534.8
49790.3
47019.1
52933.8
50581.1
43258.4
35525.5
31293.7
26618.5
22903.7
19792.4
20407.9
20298.6
18373.5
19336.2
18027.2
17504.1
18537.2
17425.1
17575.7
46987.2
47115.3
52391.5
49534.9
44407
37211.1
30553.8
26492.1
24496.1
21089.2
18656.4
19800
17472.3
18662.6
19540.5
16886.6
18087.7
19421
18403.8
46475.1
55204.9
53543.9
48254.1
42549.1
35840.9
31346
25233.6
22948.1
22738.9
20862.4
18764.8
19804
18011
19215.9
19595.5
18184
19582.4
19685
49236.9
47885
54325.5
49913.8
42043.6
31798.4
30585.8
28142.3
24022.4
22398.5
22077.2
19384.2
20252.4
18920.9
18812.7
20282.4
18168
19009.4
20018.9
48555
44422.3
51317.3
51524.3
42145.7
32774.9
29610.3
27971.6
26486.1
21584.5
22232.4
21253.9
19386
20152.5
18610.4
18999.6
19771.2
17501.6
18841.7
39072.6
56035.4
61519.1
53653.8
45775.1
39048.9
30708.8
27949.4
25221.8
21609
22428
21041.3
20081.1
21261.5
19790.6
17682.4
19964.4
17835.7
19638.7
47176.8
44570
49417.9
49241.3
40573.5
31813.5
28357.1
27167.2
25593.4
20727.8
21736.9
20559.3
18792.6
19788.3
18169.9
18601.9
19395.9
17236.6
18500.5
40989
60681.4
61089.1
57528.7
46475.4
38793
32333.4
29231.5
24824
23907
23719.6
20478.5
23269.2
21521.1
18348.4
20806.5
19301
18724.2
20210.5
45338.1
46742.9
53801.8
48652.4
39896.3
30721.4
29596.3
27270
23714.7
21202.2
22443.2
18247.3
19817.8
18074.7
18035.3
19596.3
16783.2
17506.5
18357.5
38759.7
62392.1
71785.5
69650.3
50872.5
40340.6
36200.2
32892.2
28010.7
27558.9
25346.2
22873.7
24795.9
22727.5
21688.5
21863.9
19366.8
21054.8
20089.6
46930.9
53817.8
56129.5
48766.7
40873.8
35091.1
31716.8
27372.5
23027.3
23820.1
23253.8
20358.1
20663.4
18123.7
19230.9
19145.7
17001.2
18546.4
17268.2
41836.9
73010.6
77197.1
65367.3
51843.6
45561
40575.1
33457.8
29107.7
26590
24511.4
25895.1
25201.6
25920.7
25558.8
22760.1
22700.6
21985
20277.1
53821.1
55532
53834.7
51250.7
45195.7
39092.6
33998.4
28209.7
26449.5
24824
22748.2
23222.2
20213.4
21060.3
21839
17483.9
18596.8
17505.7
16808.2
40120.3
72338
84620.6
75379.1
67835.9
47457.4
38230.4
35320.5
29731.3
25721.8
25870.4
23824.6
25265.7
24362.5
24023.2
24246.3
25307.6
23503.5
21007.9
56921.3
62342.7
62350.8
55341.1
47501.4
39438.4
34524.5
30782.1
26909.1
23245.3
25253.7
23462.8
22907.6
23812
21120.3
19893.9
20075.7
17163.9
18250.4
43743.3
81758.8
86108.8
71289
64687.5
52725.4
42455.5
34495.2
30440.3
27215.3
25336.4
25335.8
23649.8
22979.3
21652.2
24185.1
25699.7
23981.4
23632.8
56096.2
61139
62914.7
58856.9
54891.8
43806.5
35673.8
29332.1
25552.2
24707.5
20228.6
22947
22860.8
22019.1
21181.3
22189.7
20217.3
19250.9
19067
49683.3
62510.9
89754.9
76918.4
62499.4
46832.1
39745.2
34312.9
29693.1
25820.1
24527.5
25398.7
24129.9
23635.4
23681
25390.5
22677.9
23391.7
26262.8
57385.1
62058.1
68482.9
56700.8
52504.9
43026.4
36839
30890.9
27345.3
23275.6
22516.7
22883.8
20520.8
21235.8
21791.6
21294.6
22970.4
22024.2
21313.3
34577.7
76268.6
84578.9
71461.3
64375.1
46813.9
40826.8
33397.1
27222
26411.9
26112.6
23127.1
22195
23164.7
22769.8
22725.4
22536.8
23666.9
26035.4
65862
63414.1
64649.8
61053.4
50247.7
38207.2
35147.6
32102
24213.2
22823.7
24028.5
23190.9
19231
20287.2
21662.5
19594.4
21557.4
23716.5
22166.1
40072.7
70835.4
87089.2
60839.7
50472.4
43987.5
37945.9
34058.9
29812.1
28129.2
26380.2
23059.7
22175.2
22931.5
23472.3
21528.5
22946.8
23960.9
24277.1
52235.7
61662.6
60467.2
56687.5
48114
40484.8
32951.8
29960.5
25722.2
24795.3
20776.9
20543.3
21306.4
21019.4
17365.7
19980.7
20230.7
22459
23744.9
46972.5
69918.2
67727.9
50241.8
48255.8
43728.8
38243.4
34747.9
31576.1
27883.3
26831.9
25164.2
24693.5
23197.5
22035.7
21813.9
23351.9
26219.1
23860.3
54746.6
58310.4
66789.3
54238.8
49168.5
43231.5
33914.3
31688.2
28022.5
24257.6
21938.9
23234.7
22861.5
20686.5
18150
20287.6
18528.8
20325.8
22887.5
38793.1
62673
67902.9
51858.7
47397.2
40085.8
35209.4
33073.1
31228.7
27878.6
27903.1
26651
25841.6
24255.6
21477.2
22319.4
23234.3
25094.3
23164.7
52489.9
57582.3
63467.5
52255
45829.8
36625.8
33061.2
31378
28184.8
27225.7
25366.9
26866.6
21746
21219.4
19521.1
20822.7
18905.6
18545.3
21413.2
37722.5
59711.9
63069
52916.7
44544
37954.8
34855.2
29246.9
30177.4
27421.6
29636.2
25873.8
27633.2
25591
21876.7
23391.5
23848.1
24637.4
21958.4
45213.3
58443.1
60611.6
49927.1
40876.1
36132.9
31782.5
27082
27161.8
25926.8
25517.4
24042.2
24440.7
21975.9
20273.3
21593.4
19738.1
17655.4
20621.3
37959
58384
57938.2
52691.6
42493.9
36528.6
34059.6
30820.1
28444.5
27092.3
27004.3
25179.7
27670.7
26918.9
23291.6
23022.2
24146.6
23483.2
21479
47389.3
49274.3
52134.1
47579
37515.4
33522.6
30432
29256.8
28719.4
26352.4
25046.9
24806.6
24592.7
25880.2
20194.5
22867.7
21185.1
18204.3
20115
35873.4
53776.9
56022.1
51789.3
44501.5
39172.5
35050.1
32452
29536.2
28889.5
27772.2
26790.4
27911.3
26706.8
23575.7
24045.5
24375.6
23416.1
22351.4
51580.8
54022.6
48058.7
44125.9
39717.3
34684.2
31330.2
30377.2
29838.5
26930
26339.3
23420.6
24775.2
25563.6
21409.7
22228.6
20679.7
19836.9
19593
38992.4
57978.1
59297.7
55165
50043.9
39339.5
38356.6
34428.5
32343.7
31501
30776.7
27963.5
27903.8
27406
24350.8
24874.6
25700.6
24304.8
21942.4
53195.8
55364
51700.7
46833.9
40030.4
34572.9
31443.9
30644.3
28862.2
28271.7
29461.7
24414.7
24313.8
24251.9
24707
23316.9
21905.7
19012.1
20043.2
39936
62490.3
66756
57243
53152.3
46525.2
41418.4
38372.5
34324.2
34723.5
32719.3
30892.1
30154.6
29049.6
27430.3
26379.4
27289.9
26323.9
23284.6
48920
59972.1
59744.7
51159
47798.6
41043.3
35997.2
33359.5
30903.7
29587.3
30313.8
26281.8
26399
25397.1
25231.3
25379.4
22908.3
20591.5
21322.4
47044.1
66309.5
72920.9
67965.5
61473.4
54545.7
46592.9
45509.8
40980
38817.4
36186.9
33121.2
34647
32722.9
29370.3
28913.9
27956.7
28689.2
24139
54843.9
55334.7
59204.6
55918.8
48646.9
46631.1
43423.7
38557.8
34096.1
34067.3
31799.1
29168.1
28243.8
25382.9
26129.7
27055.6
25279.7
22661.3
21914.4
43575.5
68093.5
77384.9
75321.1
71180.5
63927.6
56481.4
51018.9
46044.2
43532.7
40942.8
37210.1
36543.5
38066.5
32738.6
31230.3
30990.1
30872.6
28538.6
59604
65566.1
64644
62533.5
54341.7
53387.4
48902.9
41453.2
39480
37656.9
35136.8
34171.9
32967.7
29087.6
27659
29152.8
26058.9
21736.6
21381.1
46848.3
70872.9
77449
78144.8
78079.1
66373.2
60565.7
57676.9
50701.7
47605.7
46957.5
43785.9
41911.9
40242.6
36929.2
33147.4
31810.2
32299
29247.7
57227.9
67090.9
65302.1
64225.3
61084.9
56664
55344.7
49964
43056.2
43813.6
41809.1
33751
33759.7
32152.5
27856.9
29082.9
26546.4
22716.5
22366.3
44213.4
44213.3
44204.8
44184.4
44145
44085.1
44039.5
44016.1
43011.4
37879.7
37855.6
37828.2
37768.9
37646.7
37401.8
36921.4
36057.5
36538
41016.4
41018
41009.7
40988.8
40945.3
40867.2
40763.6
40690.3
48739.2
38547.8
38522.8
38494.2
38431.6
38298.7
38017.5
37416.1
36238.9
43193.5
37694.3
37693.1
37682.3
37655.8
37602
37509.8
37409.7
37456.2
45125.8
42363
42339.1
42312
42250.6
42116.6
41828.3
41217.3
40077.1
44732.8
43563.8
43569.8
43565.7
43553.3
43526.7
43483.3
43462.4
43674
51925.6
48582.6
48559.4
48531.5
48466
48317.7
47986.6
47263
45944.5
54041.3
44144.2
44151.9
44146.9
44131.7
44098.1
44038.8
43989
44166.8
52410.5
50442
50421.7
50393.9
50326.3
50169.7
49812.1
49014.9
47550.4
56326.1
41181.5
41188.1
41180.4
41158.4
41110
41022
40927.7
41047.5
50479.1
49344.9
49329.6
49302.7
49235
49076.1
48710.3
47889.8
46367.7
56530.8
38735.3
38750.2
38742.4
38719.7
38667.5
38569.3
38464.8
38701.4
51446.7
44720
44711.3
44683.9
44611.9
44441.6
44048.4
43173.5
41645.6
56509.3
36134.4
36134.9
36126.8
36103.5
36047
35925.7
35732.9
35796.9
45689.3
34203.2
34185
34152.4
34071.9
33882.3
33437.1
32409.8
30486.8
44071.2
42686.2
42694.7
42694.4
42689.7
42696.6
42680.3
42665
43039
48831.2
30946.2
30933
30910.8
30854.9
30718.3
30397.4
29623.7
28383.5
46459.6
32903.6
32907.7
32903.1
32874.8
33049.8
32986.6
32901.5
33680.1
41462.9
28029.5
28018.6
28000.3
27959.3
27834.4
27610.2
27085.4
25987.3
44785.2
32269.1
32281.1