/*--------------------------------*- C++ -*----------------------------------*\
| =========                 |                                                 |
| \\      /  F ield         | foam-extend: Open Source CFD                    |
|  \\    /   O peration     | Version:     3.1                                |
|   \\  /    A nd           | Web:         http://www.extend-project.de       |
|    \\/     M anipulation  |                                                 |
\*---------------------------------------------------------------------------*/
FoamFile
{
    version     2.0;
    format      ascii;
    class       volSymmTensorField;
    location    "172800";
    object      sigma;
}
// * * * * * * * * * * * * * * * * * * * * * * * * * * * * * * * * * * * * * //

dimensions      [1 -1 -2 0 0 0 0];

internalField   nonuniform List<symmTensor> 
21211
(
(68304.9 0.133508 -5208.54 39693.6 5.43779 49081.5)
(68309.9 -1.12125 -5210.24 39650.6 -27.9184 49088.6)
(68389.6 2.64644 -5215.97 39748.4 -73.8827 49152.6)
(68528.6 14.7607 -5214.67 39981.9 -164.346 49314.3)
(68706.5 1.7398 -5102.03 40353.9 -391.976 49220.4)
(69608.6 -17.9146 -5151.46 41565.3 -917.561 49996.8)
(71293.5 -5.02023 -5217.65 44148.9 -2114.89 51582.5)
(74541.7 -203.18 -4841.8 49666.8 -4565.25 53289.3)
(80141.5 -876.185 -5175.43 66210 -6825.92 54041.4)
(71235.6 37.9859 -11473.5 44749.1 -25.6828 64307.8)
(71231 36.7866 -11476.5 44710 3.18421 64296.7)
(71248.5 46.8924 -11459.9 44782.8 45.4397 64334.3)
(71558.4 80.0978 -11548.2 45106 105.848 64647.2)
(71793.6 57.9145 -11530.4 45627.4 290.405 64912.1)
(72556.7 60.7712 -11587.5 46859.8 675.604 65572.6)
(73892.6 124.208 -11557.7 49616.7 1539.05 66766.1)
(77525.1 222.025 -11925.7 56629.9 3767.64 70208.5)
(86920.6 261.715 -12587 74698.5 13700.3 83508.8)
(70193.6 1.62625 -3394.03 40655.7 3.83518 50415.3)
(70198.4 2.95881 -3397.8 40618.8 -29.7273 50423.8)
(70276.2 8.24123 -3403.54 40723.4 -80.2225 50489.4)
(70423.3 13.8943 -3396.75 40971.5 -183.339 50648.7)
(70661.1 9.2048 -3234.9 41378 -418.762 50629.5)
(71523.2 43.1555 -3268.52 42643.6 -973.944 51421)
(73184.7 87.377 -3286.69 45398.7 -2295.45 53057.1)
(75906.4 -22.9388 -2424.51 51079.2 -5178.12 54752.9)
(82573 -540.162 -2601.73 69412.5 -9443.34 57263.1)
(72931.3 30.5877 -8759.32 44391.5 -23.8834 60912.4)
(72921 30.2675 -8760.51 44345.8 5.92275 60898.9)
(72961.3 31.0878 -8755.31 44439 52.7771 60956.2)
(73253 43.0438 -8853.95 44762.6 123.756 61274.1)
(73573.7 20.1544 -8861.78 45320.5 315.478 61553.7)
(74366.8 16.1136 -8891.91 46644.1 710.28 62241.3)
(75869 -0.333169 -8890.24 49679.2 1634.16 63614.6)
(79851.4 12.1594 -9295.93 57480.1 3889.96 67263.9)
(89502.8 -151.43 -10111.9 77252.3 12596.9 79352.2)
(72142.7 -11.5676 -797.314 40693.1 13.1145 48901.6)
(72148 -8.41424 -800.897 40658.8 -19.0598 48909.9)
(72230.7 -1.69941 -804.078 40768 -71.9181 48976.4)
(72389.7 7.04106 -790.023 41031.3 -180.54 49153.1)
(72661.3 -3.86648 -610.873 41452.5 -417.731 49152.9)
(73572.7 61.5692 -623.481 42745.2 -991.095 49947.4)
(75383.7 127.804 -633.285 45557.5 -2333.87 51623.4)
(79597.6 90.8496 -131.123 51847.9 -5271.72 54174.7)
(86689.1 -314.057 158.568 70459.5 -9904.92 57081.3)
(76532.4 33.1345 -7955.87 45265.7 -20.0963 60590.4)
(76514.7 30.1695 -7957.24 45203.4 12.2508 60571.4)
(76534.9 28.2991 -7946.77 45297.4 59.32 60627.7)
(76884.9 36.7742 -8056.12 45641.3 134.342 60956.5)
(77237.5 3.4731 -8068.54 46225.2 330.157 61247.1)
(78073.5 -20.8406 -8097.96 47594.4 733.042 61949.9)
(79666.7 -98.9285 -8099.69 50709.4 1665.85 63353.6)
(83816.7 -288.822 -8497.24 58511.7 3959.76 66989.6)
(93749 -1083.57 -9198.2 78737.1 12758.1 78866.7)
(75588.7 3.61793 1722.48 42566.2 0.780873 52100.3)
(75602.2 6.03903 1719.15 42548.8 -33.6275 52113.9)
(75689.7 13.2615 1718.13 42662.4 -86.8234 52182.4)
(75844.6 26.2847 1726.45 42926.3 -199.691 52349.9)
(76115 42.1266 1939.7 43367.8 -457.594 52380.8)
(77052.5 130.546 1934.9 44699.2 -1061.2 53207)
(78815.9 301.364 1954.25 47597.8 -2515.81 54919.9)
(80974.8 375.432 3202.07 53300.1 -5872.54 56581.8)
(88431.7 243.33 3669.48 73326.5 -11405.6 59981)
(80225.3 34.6818 -6750.89 47320.3 -25.2636 64212.5)
(80213.3 29.4879 -6752.47 47261.3 9.84029 64197.8)
(80264 19.3556 -6757 47365.1 62.4663 64265.2)
(80536.1 22.8444 -6883.14 47682.7 139.138 64531.4)
(80904.4 -20.6349 -6895.57 48291.9 344.647 64836.4)
(81778.5 -70.1003 -6914.42 49721.3 773.163 65565)
(83522.4 -199.872 -6921.51 53042.3 1768.21 67059.4)
(87777.2 -491.841 -7206.2 61467.9 4210.86 70585.2)
(97453.4 -1853.08 -8109.01 82787 13126.3 82604.7)
(74977.5 -20.5505 6420.94 42072.3 15.3547 51491.9)
(74996.4 -15.872 6416.3 42079.8 -17.2705 51511.8)
(75093 -6.31244 6417.22 42202.7 -72.8003 51592.8)
(75271.9 13.1474 6430.57 42478.5 -191.557 51768.1)
(75552.7 21.6201 6641.17 42943.2 -462.327 51875.3)
(76522.1 143.997 6664.96 44305 -1090.61 52724.5)
(78474.2 346.368 6708.14 47316.9 -2592.63 54508.3)
(83558.5 624.084 7417.45 54468.6 -6040.93 57925.3)
(91832.9 1149.69 8219.82 76226.9 -12608.5 62320.7)
(82331.4 39.1311 -2763.9 47428.2 -14.6361 62445.5)
(82304.3 29.1924 -2764.56 47351.9 23.7413 62421.9)
(82392.3 20.3322 -2766.1 47475.1 70.0467 62494.2)
(82588.4 3.72963 -2775.39 47763.6 158.535 62669.3)
(82995 -34.5151 -2783.45 48411.7 360.853 62994.6)
(83905.5 -93.5685 -2780.08 49918.8 795.223 63745.6)
(85614.5 -255.827 -2747.43 53373.1 1804.2 65267.6)
(90152.3 -744.345 -3034.96 62070.6 4173.88 68996.2)
(100268 -3000.46 -3741.15 83773.6 12277.7 80313.2)
(81222.4 4.0402 9799.26 46040.3 -7.5472 59886.7)
(81248.7 9.10353 9797.76 46068.7 -41.9568 59913.6)
(81342.9 20.4821 9802.59 46191.6 -99.7698 59996.1)
(81513.9 43.6821 9817.55 46467.3 -229.885 60177.8)
(81644.5 76.4008 10144.5 46934.2 -516.705 60420.5)
(82692.7 214.625 10159.5 48312.2 -1204.53 61277.9)
(84424.1 503.118 10236.4 51262.1 -2898.16 63084.4)
(85789.5 773.906 11863.7 57122.2 -6960.03 65904.8)
(93577.1 1473.15 12750.4 78757.6 -15014.5 70878.1)
(86192.2 40.4746 -592.673 48386 -14.7351 62591.6)
(86174 29.9237 -593.525 48322.4 24.6525 62574)
(86265.6 17.4152 -593 48446.6 71.7627 62648.2)
(86477.5 -4.93589 -590.488 48751.2 161.811 62819.7)
(86891.5 -55.5883 -582.811 49428.6 357.857 63156.1)
(87846.5 -153.467 -570.967 51001.1 789.637 63925.3)
(89788.1 -369.329 -522.932 54685.6 1770.56 65554)
(94529.3 -851.71 -581.937 64111.9 4152.36 69446.5)
(105051 -2995.57 -1128.98 87158.5 11871.8 80770.1)
(77265.7 -27.354 12581.9 40179.8 24.3814 45563.1)
(77304 -21.7129 12577.3 40239.2 -10.2397 45599.8)
(77406.5 -8.93928 12582 40372.2 -66.7443 45682.1)
(77633 16.6216 12600.4 40671.8 -191.169 45862.5)
(78339.3 76.1469 12685.3 41360.3 -483.355 46250.4)
(78826.8 212.815 12893.4 42510.7 -1164.88 46701.7)
(81004.4 535.713 12991.3 45751 -2765.69 48630.2)
(86870.2 1014.15 13802.7 53677.6 -6501.37 52409.2)
(95304.3 1216.03 15356.8 77866.3 -13360.7 57237.5)
(92111.7 32.817 -328.414 50036.8 -14.1576 63676)
(92085.8 13.4837 -329.582 49996.8 27.1052 63661)
(92179.1 -2.39249 -330.644 50133.7 75.8088 63737.1)
(92397.6 -29.6985 -329.392 50454.2 171.452 63908.6)
(92860.9 -86.0253 -338.261 51172.8 373.739 64279.2)
(93824.2 -203.225 -303.191 52816.7 816.063 65003)
(95721 -491.565 -234.69 56670.4 1868.66 66575.3)
(100498 -1278.69 -426.881 66384.9 4418.14 70405)
(111218 -4068.68 -1175.84 90202.5 13101.4 82418.7)
(85898.6 1.50337 17308.6 49062.2 -14.8976 68385.2)
(85942.3 8.92458 17308.2 49142.9 -49.8515 68429.3)
(86122.4 25.3015 17303.6 49290.3 -114.238 68500)
(86348.6 62.3573 17327.9 49580.3 -255.947 68700.7)
(86778.7 139.505 17376.9 50201.1 -589.939 69124.3)
(87338.1 300.811 17740.7 51421.6 -1368.62 69944.4)
(89098 724.583 17873.2 54410.8 -3266.92 71867.5)
(90179.4 1299.6 19122.9 60529.5 -7812.58 74948.1)
(97512.8 2112.38 20975.3 83973.2 -16170.6 79007.3)
(96138.7 29.6365 4291.39 52273.8 -11.9256 68449.4)
(96123.4 11.7336 4289.61 52250.9 27.6379 68438.7)
(96218.7 -8.80048 4285.78 52389.7 74.6566 68507)
(96447.1 -39.3725 4291.02 52720.7 167.423 68683.9)
(96929 -108.81 4310.23 53464.7 362.53 69059.9)
(97901.7 -263.412 4359.85 55166.4 791.082 69822.2)
(99972.5 -626.357 4464.47 59170.8 1791.46 71485.4)
(104890 -1511.39 4560.89 69252.9 4387.41 75476.9)
(115571 -4957.33 3555.82 93205.1 13100.5 87448.3)
(84096.1 -30.6323 20172.2 44440.9 15.6085 55904.2)
(84115.8 -18.8706 20170.1 44526.6 -31.1067 55956.5)
(83463.6 -32.3293 20253.8 44331.7 -91.1442 55609.7)
(83727.5 29.2165 20281.2 44644 -224.437 55850.4)
(84210.6 110.666 20336.1 45287 -545.405 56265.5)
(85502.6 299.399 20532.6 46755.3 -1300.43 57193.4)
(87592.4 760.566 20709.5 49939 -3069.6 59126.1)
(93661.2 1602.49 21718.5 58114.3 -7166.91 63204.7)
(101580 2368.75 23982.4 84190.3 -14678.3 67832.5)
(105697 26.901 3514.91 55178.6 -5.75542 71550.2)
(105678 2.26954 3516.34 55203.3 21.9097 71544.6)
(105757 -20.7835 3536.71 55339 64.7199 71569.6)
(105979 -54.9885 3553.03 55675.7 167.081 71725.2)
(106453 -132.74 3578.74 56439.8 370.008 72085.7)
(107445 -302.501 3616.53 58208.2 811.981 72852.3)
(109454 -706.847 3733.27 62370.8 1858.23 74450.6)
(114176 -1873.91 3715.19 72700.3 4521.29 78362.4)
(124627 -5942.87 2595.84 97351.1 13208.8 90311.1)
(89796.8 -3.64117 29397.1 48287.5 -19.0224 68142.9)
(89822.5 11.1787 29396.6 48400.9 -54.5035 68201.3)
(89382.1 0.822715 29602.4 48268.9 -130.88 67967.2)
(89618.7 72.694 29649.3 48575.6 -273.504 68202.9)
(90111.5 157.379 29728.2 49217.6 -621.968 68639.6)
(91098.8 339.361 29901.9 50641.3 -1447.6 69627.7)
(91979.1 831.687 29685.1 53714.8 -3471.59 71431.5)
(93687.6 1713.86 30716.4 60188.5 -7943.35 73769.5)
(101275 1323.69 33665.6 88242.5 -16032.4 77873.2)
(111269 24.6884 9363.86 57197.8 -8.75212 75314.3)
(111266 8.07398 9359.37 57248.7 20.3298 75318.3)
(111356 -18.6313 9358.63 57400.8 64.294 75364.4)
(111592 -58.2861 9381.27 57760.5 164.983 75532.6)
(112090 -153.455 9428.39 58570.2 366.255 75914.1)
(113101 -365.971 9509.03 60443.7 799.77 76718.8)
(115172 -883.279 9731.56 64888.7 1858.47 78458)
(120215 -2429.18 9967.9 75706.5 4799.44 82530.2)
(130998 -8136.45 8572.35 99719.2 14553 95073.1)
(84878.6 -52.0209 31140.5 48418.8 15.3876 73583.3)
(84937.6 -26.6603 31158.6 48462.8 -34.8667 73637.6)
(85285.1 -7.55592 31334.6 48652.4 -123.345 73843.1)
(85493.1 71.8877 31385.8 48944.4 -294.981 74044.6)
(85986.9 197.466 31454.9 49644.3 -697.898 74507.6)
(87069 369.308 31809.4 51678.7 -1498.01 75546.4)
(121394 1353.17 21000.3 66766.5 -2030.39 83231)
(95713.2 1646.42 34655 64550.6 -8738.82 81977.6)
(102001 1995.76 36666.5 93909.3 -15762.4 85934.2)
(114575 1.44484 15226.3 59199.3 1.47444 81304.3)
(114601 -11.6221 15231.4 59286.4 27.4389 81331.4)
(114708 -32.7158 15227.8 59454.6 75.6589 81409.1)
(114940 -76.9391 15251.6 59853.8 171.37 81594.6)
(115429 -204.528 15311.4 60778.1 393.723 82005.6)
(116640 -646.724 15333.3 62795.5 988.215 82952.9)
(119989 -1229.95 14088.7 66630.7 1495.87 85114.5)
(123915 -2424.45 15256.3 79180.4 4300.62 89200.3)
(134081 -8357.78 13669 103754 14873.9 101345)
(89036.9 -8.01095 43491.7 52495.4 -7.35166 93383.9)
(89088 15.9331 43507 52545 -59.0706 93436.9)
(89204.2 44.8726 43541.1 52677.8 -150.627 93549)
(89427.6 106.457 43590.4 52970.4 -340.233 93769.3)
(89887.5 242.719 43678.1 53594.5 -768.658 94224.6)
(90649.8 876.538 43530.8 54513.3 -1683.77 94823.1)
(73296.9 1566.3 32452.9 52726.5 -4111.58 85530.6)
(92645.3 1406.33 42315.4 64188.1 -9763.54 97739.4)
(97828.9 542.726 46948.3 94854.5 -18549 100814)
(120580 11.3505 20724.9 62255.1 0.49348 89599.4)
(120608 -4.88537 20730.2 62307 27.0716 89618.9)
(120715 -33.1793 20750.5 62478.4 75.0106 89705.7)
(120949 -90.0255 20794.8 62881 171.491 89904.1)
(121446 -195.849 20891.4 63781.5 373.469 90322.9)
(122396 -369.55 21169.7 65902.7 769.334 91217.2)
(124589 -1110.83 22579.4 71107.3 1953.78 93416.4)
(129477 -3440.54 22278 83155.2 5302.99 97813.9)
(140941 -11985.8 19055 109522 15184.1 109888)
(79959 -45.8136 41104.6 55793.6 -5.89324 115934)
(80009.8 1.62054 41129.4 55785.3 -69.6015 115987)
(80098.5 49.491 41145.1 55901.4 -184.176 116085)
(80296.5 148.279 41171.6 56179.9 -415.07 116297)
(80725.1 370.966 41209.7 56796.9 -908.173 116753)
(81595.7 876.245 41196.4 58189 -1990.47 117702)
(84104 1929.44 42029 61752.3 -4538.73 120968)
(87432.7 4017.66 42889.4 70065.7 -10258.4 124819)
(92231.9 3379.41 47430.2 102926 -20082 128225)
(111638 -9.78189 28739.1 62679.5 4.40875 101959)
(111685 -19.9146 28755.9 62744.8 35.4748 102004)
(111791 -47.7683 28781.6 62938.6 88.4497 102110)
(112026 -104.189 28833.4 63396.8 195.637 102346)
(112506 -222.299 28934.3 64430.2 420.981 102842)
(113465 -510.653 29126.4 66793.4 893.239 103888)
(115524 -1347.01 29432.7 72274.2 1937.94 106028)
(120435 -4078.46 29814.8 85014.4 4786.17 110914)
(133016 -13673.9 27199.9 111420 14255.7 123495)
(77427.2 8.06202 41797.4 59469 -0.430249 138868)
(77458.3 44.7109 41809.3 59474.7 -77.3942 138913)
(77547.9 109.776 41820.8 59602.7 -198.746 139017)
(77746.9 244.378 41841.4 59904 -444.334 139247)
(78167 534.798 41871.8 60566.8 -974.626 139730)
(79044.4 1168.4 41915.7 62025.2 -2146.3 140747)
(80854.9 2547.92 42059.1 65341.9 -4737.13 142895)
(83873.1 5353.49 42736 74029.5 -10392.3 146431)
(87434 5617.6 47658 108872 -20936.9 149409)
(108673 -0.96445 33112.1 64716.6 8.17376 115985)
(108705 -23.1684 33125.9 64762.7 37.4556 116022)
(108810 -61.2643 33152.1 64978.5 89.1647 116142)
(109043 -138.119 33206.7 65481.1 192.691 116407)
(109529 -306.695 33313.9 66597.6 406.131 116952)
(110540 -694.613 33523.3 69094.8 854.498 118070)
(112685 -1675.82 33906.6 74810.6 1874.62 120392)
(117485 -4737.21 34252.6 87972.7 4733.27 125480)
(130701 -15497.3 31390.9 114596 14732.3 138033)
(74794.2 9.69342 37132.3 64544.4 -5.04366 169845)
(74815.9 57.0619 37138.9 64553.4 -87.7563 169897)
(74904.7 141.362 37147.9 64688.7 -221.262 170011)
(75102.1 312.115 37163.4 65003.3 -490.424 170260)
(75517.3 675.271 37184.6 65686 -1064.11 170772)
(76377 1459.66 37207.9 67167.5 -2306.83 171817)
(78066.9 3148.47 37267.6 70503.9 -5003.06 173876)
(80747.8 6566.7 37880.3 79288.9 -10806.9 177201)
(82779.5 8885.76 42313.6 113606 -20990.4 179432)
(104518 -9.15347 36758.4 66765.3 3.21371 132876)
(104550 -30.9928 36775.4 66810.3 35.4622 132923)
(104654 -76.3561 36802.8 67041.4 86.3962 133057)
(104886 -169.446 36859.6 67578.5 184.303 133349)
(105365 -369.037 36970.9 68758 382.372 133944)
(106351 -812.741 37183.9 71363.9 795.605 135141)
(108413 -1905.29 37547.6 77249 1731.43 137563)
(113031 -5166.27 37755.9 90613.4 4305.85 142543)
(125595 -15879.3 34620.3 118223 12949.8 152962)
(67828.5 5.19222 33619.3 64637.9 -4.95158 183670)
(67858.2 68.4422 33630.9 64642.7 -88.2284 183734)
(67950.1 170.022 33639.9 64788.4 -222.343 183858)
(68153.4 372.787 33654.4 65126.9 -487.968 184124)
(68579.5 799.784 33672.3 65855 -1046.06 184660)
(69454.2 1712.79 33686.2 67420.8 -2240 185731)
(71127.2 3657.22 33723.2 70928.8 -4806.4 187796)
(73506.6 7515.6 34284.3 80249.5 -10351.1 191180)
(74277.1 7518.37 38410.9 117733 -21187.6 194612)
(101519 -5.76895 37206.7 68383 5.32217 145778)
(101551 -38.4619 37221.9 68446.9 32.7778 145831)
(101654 -96.508 37247.6 68695.3 77.822 145977)
(101880 -211.465 37300.4 69265.3 164.005 146291)
(102345 -452.882 37401.9 70507.6 335.793 146923)
(103292 -983.242 37588.6 73234.7 687.644 148172)
(105266 -2293.14 37873.8 79361.3 1462.65 150638)
(109776 -6257.77 37812.2 93198 3521.54 155500)
(123397 -19352 33960.8 121090 10253 164994)
(65428.9 7.55426 15357.3 67813.6 -1.09771 202608)
(65452.3 88.8033 15359.3 67809.7 -87.3782 202680)
(65543.9 220.282 15362.2 67959.1 -219.607 202810)
(65746.3 479.813 15365.5 68306.8 -477.977 203083)
(66169.5 1020.28 15363.3 69048 -1014.53 203626)
(67028.7 2160.25 15344.5 70624.8 -2148.89 204693)
(68584.8 4540.35 15345.5 74140 -4560.69 206732)
(70157.5 9109.38 15968 83724.3 -9784.96 210140)
(67374.4 8658.83 20940.3 124787 -21376.5 214285)
(91122.5 -8.19283 31575.3 69190.6 2.64105 163036)
(91150 -45.1936 31588.4 69255.9 25.313 163099)
(91249.5 -111.707 31609.1 69518.4 60.2649 163257)
(91470 -241.666 31651.2 70117.5 125.199 163594)
(91921.3 -510.237 31731.8 71413 251.048 164263)
(92840.8 -1096.35 31879.9 74228.1 499.783 165569)
(94792.8 -2579.48 32103.6 80446.5 1023.89 168115)
(99574.8 -7370.31 32002.6 93985.8 2366.67 172996)
(115721 -24405.4 28588.8 119774 6758.27 181457)
(64446 6.17888 -2931.13 69213.7 -1.01966 214635)
(64472.3 104.627 -2932.42 69207.6 -79.8017 214718)
(64564.6 259.447 -2935.16 69361.1 -200.48 214852)
(64767.8 562.013 -2942.14 69716.8 -432.621 215130)
(65192.6 1187.05 -2961.11 70469.6 -908.512 215672)
(66052.3 2495.03 -3005.31 72056.7 -1902.06 216721)
(67577.5 5204.13 -3042.96 75551.3 -3997.1 218697)
(68863.6 10419.9 -2508.4 84874.2 -8595.81 222056)
(64049.4 12497.9 2425.34 123365 -18848.7 226703)
(84429.5 -8.62788 21997.8 69966.4 2.48206 175180)
(84455.4 -51.1903 22006.5 70039.6 14.63 175246)
(84552.2 -125.481 22020.2 70311.1 33.5931 175414)
(84766.2 -268.81 22048.4 70926.8 67.9151 175769)
(85202.5 -560.614 22102.4 72251 131.503 176467)
(86089.2 -1186.53 22203 75114.8 251.93 177816)
(87992 -2733.87 22369.4 81420.4 509.171 180411)
(92849 -7584.78 22440 95137.2 1296.06 185261)
(110062 -24601.8 21204.7 121011 4337.54 193422)
(74126.3 5.0437 -25968.2 71299.6 2.84384 212948)
(74154 121.999 -25984.3 71278.1 -64.6329 213028)
(74249.1 302.343 -25994.3 71428.6 -162.247 213163)
(74456 651.541 -26013.2 71779.8 -347.512 213438)
(74885.4 1366.98 -26050.1 72518 -723.242 213972)
(75746.9 2850.82 -26119.4 74058.3 -1498.81 214992)
(77229.8 5894.29 -26208.8 77410.9 -3110.05 216893)
(78101.9 11731.5 -25935.8 86341.1 -6578.24 220095)
(70921.3 13965.5 -22748.7 124346 -15673.5 224211)
(75679.5 -7.51592 7712.6 69437.5 0.107049 185459)
(75702.7 -51.0081 7713.45 69508.4 3.18775 185535)
(75797.7 -125.806 7718.28 69785.2 7.16688 185711)
(76008.2 -267.747 7728.46 70409.4 13.1605 186081)
(76436.3 -552.889 7748.59 71743.3 21.0274 186805)
(77304.1 -1156.91 7787.63 74607.8 26.4599 188197)
(79169.3 -2650.41 7844.49 80864.6 17.9991 190846)
(84029.7 -7495.09 7729.86 94312.7 91.8954 195687)
(102057 -25449.8 6751.57 119003 1245.78 203727)
(73036.7 -2.02836 -17258.5 47888.7 5.15646 75671.2)
(73042.5 -2.09648 -17260.2 47843.4 -33.3038 75682.3)
(73127.4 4.35755 -17268 47926.2 -80.3764 75753.2)
(73231 43.9217 -17293.1 48106.7 -175.165 75939.4)
(73208.4 97.7238 -17491.8 48675.5 -391.386 76711.2)
(74317.4 13.8268 -17709.7 49735.9 -963.015 77461.9)
(75751 216.418 -17866.4 51910 -2253.23 78952.5)
(79121.2 563.644 -19320 57642.6 -4954.75 84086.6)
(83610.3 1764.65 -19830.1 72292.7 -8625.43 84126.1)
(66101.2 4.77856 -14060.5 44155 0.423676 67909.9)
(66111.2 -16.9894 -14044.8 44151.4 -33.5218 67888.1)
(66639.8 -71.5899 -14131.7 44295.5 -74.6463 67895.6)
(66932.5 28.8179 -14199.3 44484.6 -231.492 68025.4)
(66801.9 48.6003 -9639.57 43359.2 -398.008 61289.6)
(68028.7 262.242 -14557.2 46410.5 -860.189 70178.1)
(68899.9 16.7578 -14605.2 48564.9 -2209.89 71147.2)
(73369.7 -20.7144 -10403.5 54614.5 -2202.37 66815.2)
(78930.4 924.591 -11912.4 72167.8 1779.42 68601)
(61246 6.06069 -12602.9 40149.7 -20.1286 58824.6)
(61027.7 102.216 -12378.1 40160.5 -0.214605 58560.7)
(63025.6 255.381 -14983 41976 -115.374 63565.1)
(62727.2 -29.5619 -14833.9 41824.9 -108.158 63180.1)
(59305.5 -81.4705 -13607 41168.3 -360.647 61777)
(62326.8 -67.589 -12601.8 42216.7 -678.931 59848.2)
(63778.3 5.83262 -12695 44726.9 -1450.48 61254.8)
(63999.7 717.667 -14384.2 49620.7 -4338.77 67708.1)
(66160.6 1403.56 -15385.8 60634.3 -3290.75 64358.2)
(58029.3 52.9976 -15342.5 43647.8 -179.384 75432.7)
(58114.2 15.3858 -15352 43735.9 -201.851 75544.9)
(61163.8 -90.4558 -17573.7 44976.5 -116.724 78352.5)
(61345.3 -21.2734 -17609.7 45310 -147.515 78819.7)
(61437.2 -8.06928 -17593.7 45571.6 -328.768 78951.4)
(59084.5 121.65 -15464.8 45425.3 -1047.91 77198.8)
(60158.1 -42.4828 -15588.9 47212.2 -2174.92 78538.8)
(66187.4 -201.448 -18895.2 53032.4 -3665.82 86197.9)
(67314.1 1561.18 -20153.8 62602.9 -2425.6 80977.5)
(59964 0.96944 -14503.3 45443.1 6.70175 80075.1)
(59940.7 -1.93749 -14489.4 45395.2 -19.3593 80053)
(59875.1 12.3855 -14494.4 45509.1 -76.1033 80375.3)
(59953.7 -18.2154 -14498.9 45639.8 -159.168 80389.5)
(60174 -47.8519 -14525 46003.1 -352.237 80665.8)
(60878.2 -117.103 -14761.6 46872.3 -783.973 81623.6)
(61882 -241.945 -14833 48436.2 -1723 83022.5)
(64158.9 -379.553 -15424.9 52134 -3127.39 86574)
(65190.3 836.746 -16677.7 60379.5 -1901.27 81120)
(55146.9 -0.869224 -13686.1 40276.6 4.54983 65569.7)
(55142.8 -8.7261 -13678.9 40254.2 -21.4577 65570.8)
(55255.9 -7.30445 -13830 40432.2 -58.5472 66007.2)
(55387.7 -25.2648 -13868.4 40612.7 -130.852 66178.5)
(55614.7 -54.9241 -13895.5 40969.4 -298.78 66436.2)
(56121.4 -132.01 -13938.8 41747 -693.259 67021)
(57196.1 -314.018 -13985 43373.6 -1554.16 68340.8)
(59525.7 -545.058 -14477.6 47214.9 -2952.12 71680.6)
(60488.4 346.183 -15724.6 55651.6 -2048.5 68585)
(54414.6 5.86597 -11898 40522.1 -8.73127 66737.7)
(54426.7 -1.25996 -11898.5 40520.4 -36.5337 66759.2)
(54559.8 -12.9323 -11956.2 40626.7 -69.3728 66904.3)
(54585 -17.9377 -12040.5 40829 -155.734 67313.2)
(54788.6 -70.0529 -12061.5 41149.8 -315.568 67540.6)
(55246.4 -167.412 -12093.8 41848.9 -714.635 68096.7)
(56214.4 -366.32 -12112.5 43307.2 -1570.45 69373.9)
(58047.7 -480.533 -12541.6 46599.3 -2810.5 72355.8)
(56900.1 1475.92 -14585.6 52912.6 -288.046 66813.7)
(54766 -0.64432 -10996.3 40172.8 1.34865 64776.9)
(54777.5 -8.41749 -10995.9 40171.8 -21.8675 64794.9)
(54809.8 -19.6498 -10992.9 40233 -53.0115 64832.4)
(54859.8 -33.8893 -11131.1 40438.1 -118.694 65245.9)
(55085.7 -90.345 -11152.5 40755.6 -269.999 65466.6)
(55537.5 -206.501 -11177.5 41413.2 -625 65979.6)
(56453.2 -440.31 -11192.5 42690.4 -1371.69 67126.5)
(58091.8 -638.167 -11674 45467 -2401.57 69915)
(56964.8 1136.61 -13986 51879.1 -106.159 64543.8)
(51686.4 15.7818 -11353.8 37733.9 -3.21353 59595.3)
(51704.7 4.85153 -11355.4 37745.9 -26.7937 59616.5)
(51751.7 -9.45778 -11358.4 37817.3 -60.9512 59667.5)
(51942.7 -41.3719 -11420.3 38001 -129.477 59841.7)
(51978.7 -102.353 -11482.1 38268.4 -297.242 60123.1)
(52441.5 -267.812 -11491.5 38916.3 -646.443 60622.5)
(53421.2 -590.021 -11473.4 40246.1 -1391.27 61761.7)
(55088.5 -925.187 -11726.1 43006.9 -2380.76 63786.5)
(53109.7 1465.54 -14338 49827.3 947.745 58058.9)
(55009.4 -2.0408 -11649.6 41149.5 -1.01851 68421.1)
(55026.8 -12.3935 -11650 41168.1 -23.152 68443.7)
(55075.1 -29.2738 -11653.4 41238.1 -56.6068 68495)
(55159.2 -65.249 -11653 41382 -127.642 68591.8)
(55224.2 -134.776 -11752 41723.6 -286.56 69121.6)
(55690.9 -326.777 -11755.2 42373 -647.856 69571.6)
(56617.1 -699.57 -11728.7 43646.8 -1420.18 70655.9)
(58136.8 -1128.96 -11966.6 46339.2 -2583.1 72988.3)
(56025 1399.1 -14855 53355.5 -592.254 67132.8)
(49298.4 28.8677 -13967.5 34848.8 6.65978 53217.3)
(49327.9 12.2956 -13971.2 34883.9 -16.6869 53246.3)
(49377.8 -11.3167 -13974.7 34954.3 -54.1306 53294)
(49482.5 -57.2772 -13980.5 35111.1 -132.201 53395.3)
(49794.3 -159.007 -14048.4 35468.1 -304.333 53658)
(49980.9 -393.641 -14062.6 36014.1 -693.797 53970.1)
(51055 -898.824 -14034.2 37453.3 -1496.79 55073)
(52780.5 -1645.41 -14196 40338.1 -2798.89 56808.6)
(51423.5 586.298 -17062 49612.3 -1375.11 53198.8)
(52466.6 0.958356 -13973 41935.8 -5.44677 75572.9)
(52486.9 -18.1286 -13973 41965.5 -29.8264 75594.5)
(52536.1 -46.9066 -13976.2 42038.9 -74.4695 75646.9)
(52643.1 -105.054 -13981.8 42202.3 -166.208 75759.7)
(52863.3 -231.352 -13986.3 42545.1 -366.11 75981.7)
(53255.4 -512.837 -14041.9 43272.1 -830.315 76645.7)
(54253.1 -1130.85 -13994.3 44760.3 -1800.8 77763.4)
(55903.4 -2147.06 -14132.4 48022.8 -3570.28 79684.1)
(54526.5 89.7606 -17618.8 59451.4 -3466.63 76759.4)
(50631.1 22.6724 -10438.1 43148.9 -18.3646 82017.6)
(50660.5 -10.3185 -10444 43179.1 -47.3835 82049.2)
(50704.6 -53.7876 -10444.1 43244.1 -104.897 82095.1)
(50802.7 -138.52 -10442.9 43392 -218.256 82197.2)
(51012.9 -315.096 -10437.5 43716.2 -457.611 82419.8)
(51551.5 -692.73 -10469.6 44460.3 -976.3 83105.9)
(52505.4 -1481.01 -10379.8 45878.7 -2070.82 84248.5)
(53901.5 -2887.82 -10453.8 48928.8 -4173.27 86028.9)
(52131.1 -1475.74 -14257.3 60989.4 -5211.22 83695.6)
(52268 -1.51636 -7869.67 46260.9 0.327304 92838.2)
(52287.4 -35.7568 -7870.38 46283 -37.7616 92865.8)
(52334.5 -90.2893 -7869.85 46351.8 -96.4081 92915.4)
(52438.2 -195.087 -7867.02 46507.6 -210.126 93025.3)
(52654.6 -409.632 -7858.6 46837.7 -446.532 93258.2)
(53112 -856.459 -7830.9 47522.1 -945.52 93762.6)
(54043.8 -1763.36 -7744.18 48894.3 -1968.9 94829)
(55325.1 -3389.38 -7850.4 51845.5 -3861.68 96459.8)
(53256.4 -3216.64 -11475.1 63710.5 -5356.62 94815.1)
(52516.1 -1.39685 -2652.52 48733.8 0.887959 103723)
(52537.4 -44.7268 -2651.31 48758.9 -38.9875 103753)
(52587.8 -111.889 -2650.12 48833.1 -99.0003 103806)
(52697.7 -239.227 -2646.2 48998.7 -213.156 103921)
(52925.8 -496.722 -2635.31 49344.7 -445.582 104159)
(53403 -1026 -2601.16 50050.1 -925.019 104655)
(54364.2 -2088.79 -2511.72 51449.8 -1886.85 105660)
(55607.5 -4000.21 -2634.53 54437.7 -3672.29 107124)
(52733.8 -4466.11 -6067.32 65759.7 -6107.48 106260)
(53528.7 -1.46461 5024.06 50071.9 1.13203 109145)
(53553.6 -55.1749 5026.86 50102.8 -38.6952 109179)
(53607.8 -137.159 5029.07 50183.5 -97.3783 109235)
(53725.6 -290.804 5034.96 50361.3 -207.355 109355)
(53968.6 -598.249 5049.58 50729.1 -428.272 109598)
(54473 -1223.6 5090.45 51473.3 -878.428 110095)
(55475.4 -2471.47 5192.45 52956.1 -1775.4 111079)
(56749.7 -4744.72 5138.94 56236.5 -3455.68 112605)
(53775.6 -5050.36 2375.53 69203.3 -5844.05 112905)
(57178.7 -1.28086 12101.7 50647.7 1.99645 107440)
(57207.8 -64.962 12107.3 50685.7 -36.3213 107476)
(57266 -160.752 12110.9 50771.7 -90.7228 107536)
(57391.8 -338.293 12119.4 50959.1 -191.588 107662)
(57649.6 -690.076 12138.5 51343.2 -391.966 107915)
(58180.1 -1397.54 12185.4 52111.9 -795.804 108423)
(59211.7 -2788 12291.2 53627 -1598.75 109416)
(60425.6 -5270.16 12307.4 56918.8 -3161.12 111085)
(57117.3 -6683.78 10285.1 68978.3 -6504.88 112945)
(49402.4 -1.86994 10289.1 46051.3 -0.356026 97318.8)
(49433.6 -67.7567 10291.5 46096.3 -28.3796 97359.3)
(49494.8 -166.518 10294.8 46189.2 -70.1247 97424.3)
(49626.5 -347.858 10302.5 46389.9 -147.042 97560.5)
(49896.1 -704.398 10320 46798.8 -298.538 97832.1)
(50451.6 -1417.39 10361.3 47613.9 -600.798 98369.7)
(51540.4 -2814.53 10446.4 49221.2 -1192.57 99402.8)
(52857.8 -5297.62 10409.4 52799.1 -2305.55 101134)
(49565.3 -5004.85 8749.3 66987.9 -3716.92 104236)
(55901.4 -1.92929 15593.2 47148.4 0.701596 93912.8)
(55934.9 -73.9853 15598.1 47196.9 -20.6836 93950.9)
(55997.8 -180.946 15603.4 47289.9 -50.7484 94017.4)
(56131.6 -375.458 15614.5 47488.1 -105.909 94155)
(56403.4 -753.98 15637.9 47887.7 -214.069 94427.4)
(56960.1 -1502 15688.1 48672.3 -428.688 94961.6)
(58041.5 -2943.53 15785 50180.7 -844.927 95973.6)
(59228.6 -5439.08 15787.3 53406.8 -1606.86 97619.1)
(54792.2 -5568.41 14237.6 65936.2 -2569.22 99577.7)
(68733.3 -48.4418 -7915.09 43872.7 18.9843 62802.9)
(68732.6 -50.2313 -7920.69 43834.5 47.8605 62793.3)
(68813.8 -36.6983 -7931.09 43910.1 81.4817 62846.5)
(68996.3 4.55265 -7925.1 44141.5 132.674 62951.8)
(69209.6 18.4557 -7808.93 44627.6 317.679 63018.3)
(69929.5 39.5906 -7883.6 45803.4 685.319 63701)
(71273.3 235.809 -7880.91 48472.5 1409.5 64844.4)
(74476.7 553.559 -7838.95 54995.2 3546.69 67332.5)
(83735.7 1349.1 -7617.66 72598.7 12774.2 80196.3)
(63086.5 -43.2097 -8413.15 39736.1 21.8879 54118.5)
(63075.2 -47.4492 -8425.89 39707.9 67.4723 54131.1)
(63125.9 -52.6856 -8496.14 39800.4 121.014 54323.3)
(63214.4 -61.6864 -8558.73 39949.9 127.534 54465.1)
(63949.7 -195.171 -8735.73 40352 290.381 53725.9)
(64258.9 233.007 -8574.85 41688.4 643.891 55133.1)
(65561.8 158.117 -8493.46 44165 1353.45 56307.4)
(69077.9 509.2 -8779.33 49256.1 3468.66 57704.7)
(78403.1 2771.94 -8637.36 65280 11875.6 70436.9)
(63826 -133.026 -7925.44 41520.6 25.6291 59769.2)
(63810.3 -56.7313 -7897.27 41557.1 14.6207 59716.6)
(63619.1 209.008 -7577.41 41684.9 56.0695 59805.3)
(63899.5 31.2608 -7680.32 42043.3 118.319 60332.8)
(64268 -10.1026 -7722.56 42505.7 288.814 60561.9)
(65153.5 -169.802 -8008.7 43531.1 636.776 61106)
(66112.9 393.338 -8030.58 45736.8 1306.5 61791.1)
(68536.4 979.493 -7528.38 51470.5 3489.88 63537)
(78066.5 2374.41 -6984.17 66513.1 14480.2 79012.2)
(57657.7 -38.4765 -12544.5 39395.9 31.4361 59495.8)
(57673.7 -85.203 -12569.3 39373 60.1976 59499.3)
(57505.2 -164.062 -12681.5 39412.9 113.715 59474.5)
(57673.4 -47.2942 -12759.6 39617 176.695 59465.7)
(57923.3 92.9455 -12760.5 40058.2 249.521 59714.3)
(58691.5 249.406 -12630.2 41073.9 475.576 60311.2)
(59772.3 296.874 -12605.9 43275.6 1019.83 61050)
(62039.2 807.415 -12968.3 48339.1 2902.45 63100.9)
(71576.6 3722.87 -11943.7 62579.4 13662.5 79201.3)
(56828.9 -33.5586 -10133.1 39640.9 25.692 60419.7)
(56817.4 -29.2964 -10130.9 39624.1 49.0284 60411.3)
(56799.1 -14.0215 -10086 39689.7 76.443 60452.7)
(56818.2 0.814771 -10087.3 39814.4 143.302 60443.4)
(57052.2 47.9757 -10105.6 40208.5 231.937 60665.1)
(57576.3 129.777 -10165.7 41095.6 431.448 61101.9)
(58501.5 323.761 -10230.3 43031.1 883.846 61725.3)
(60446.2 897.722 -10388.9 47156.2 2527.07 63290.2)
(69826.6 3693.15 -9067.02 59379.5 12449 78035.3)
(55214.8 -48.0493 -8790.8 37439.8 15.1021 54173.3)
(55205.8 -40.3524 -8792.48 37425.9 37.0286 54163.5)
(55244.7 -19.0263 -8782.54 37509.1 60.6076 54225.2)
(55343.7 0.905594 -8802.12 37681.9 107.494 54351.4)
(55581.4 35.9273 -8821.44 38070.4 212.127 54571.6)
(56074 112.461 -8859.03 38949.6 398.643 54991.3)
(57045.9 280.921 -8948.39 40962 817.025 55726.4)
(59384.6 781.78 -9160.47 45786.9 2338.74 57867.5)
(67352.4 3009.8 -7898.85 58185.6 10814.1 70182.7)
(54260.2 -23.5877 -8686.74 36919.1 15.282 53356.7)
(54254.6 -15.9851 -8687.95 36907.6 34.9452 53351.4)
(54299.2 -4.14861 -8692.23 36984.3 61.4271 53404.4)
(54408.8 25.635 -8695.67 37156.7 104.37 53518.2)
(54639 62.6531 -8712.61 37527.2 191.274 53731.9)
(55089.4 143.95 -8750.95 38346.3 350.82 54109.1)
(55874 345.981 -8812.82 40152.8 706.759 54647.5)
(57784.1 1064.52 -8895.68 44199.8 2062.99 56110.9)
(66454.9 5379.92 -6876.89 54773.9 11137.3 70272.4)
(56539 -40.7362 -6563.44 37913.1 6.75627 54032.8)
(56531.7 -30.2124 -6564.21 37902.5 23.7712 54025.9)