/*--------------------------------*- C++ -*----------------------------------*\
| =========                 |                                                 |
| \\      /  F ield         | foam-extend: Open Source CFD                    |
|  \\    /   O peration     | Version:     3.1                                |
|   \\  /    A nd           | Web:         http://www.extend-project.de       |
|    \\/     M anipulation  |                                                 |
\*---------------------------------------------------------------------------*/
FoamFile
{
    version     2.0;
    format      ascii;
    class       volVectorField;
    location    "172800";
    object      U;
}
// * * * * * * * * * * * * * * * * * * * * * * * * * * * * * * * * * * * * * //

dimensions      [0 1 0 0 0 0 0];

internalField   nonuniform List<vector> 
21211
(
(1.61375e-05 -9.23925e-09 -0.000679124)
(1.61382e-05 6.09312e-08 -0.000679127)
(1.61439e-05 1.56846e-07 -0.000679127)
(1.61635e-05 3.43126e-07 -0.000679138)
(1.60554e-05 7.2953e-07 -0.000679008)
(1.61022e-05 1.56716e-06 -0.000679065)
(1.62179e-05 3.33313e-06 -0.000679246)
(1.58576e-05 6.79887e-06 -0.000678842)
(1.60424e-05 1.54572e-05 -0.000676041)
(1.45561e-05 -1.16172e-08 -0.000692209)
(1.45558e-05 5.8726e-08 -0.000692206)
(1.45628e-05 1.5715e-07 -0.000692199)
(1.4403e-05 3.4952e-07 -0.000692016)
(1.44451e-05 7.60642e-07 -0.000692012)
(1.44964e-05 1.6511e-06 -0.000691981)
(1.46318e-05 3.64004e-06 -0.000691974)
(1.41152e-05 8.27387e-06 -0.000691043)
(1.44775e-05 1.84208e-05 -0.000687358)
(5.53253e-05 -8.45467e-09 -0.000701717)
(5.53269e-05 6.45272e-08 -0.00070172)
(5.53329e-05 1.67266e-07 -0.00070172)
(5.53484e-05 3.68111e-07 -0.000701727)
(5.52044e-05 7.77324e-07 -0.000701612)
(5.52502e-05 1.65465e-06 -0.000701665)
(5.53459e-05 3.54282e-06 -0.000701825)
(5.47095e-05 7.22686e-06 -0.000701356)
(5.47337e-05 1.64156e-05 -0.000699154)
(5.46138e-05 -1.364e-08 -0.00071461)
(5.46153e-05 6.29494e-08 -0.000714607)
(5.46218e-05 1.71349e-07 -0.000714599)
(5.44399e-05 3.81626e-07 -0.000714424)
(5.44642e-05 8.13296e-07 -0.000714409)
(5.45106e-05 1.76184e-06 -0.000714374)
(5.46139e-05 3.89947e-06 -0.000714334)
(5.39825e-05 8.91303e-06 -0.000713441)
(5.42119e-05 2.02828e-05 -0.000710561)
(9.75484e-05 -6.46792e-09 -0.000721984)
(9.75492e-05 6.84893e-08 -0.000721987)
(9.75537e-05 1.75753e-07 -0.000721986)
(9.7571e-05 3.85031e-07 -0.000721995)
(9.7403e-05 8.13986e-07 -0.000721888)
(9.74392e-05 1.71932e-06 -0.000721934)
(9.75276e-05 3.65732e-06 -0.000722087)
(9.70578e-05 7.51572e-06 -0.000721862)
(9.69286e-05 1.67368e-05 -0.000719857)
(9.76467e-05 -1.32937e-08 -0.000735106)
(9.7647e-05 6.64481e-08 -0.000735103)
(9.76503e-05 1.80668e-07 -0.000735093)
(9.74421e-05 4.05294e-07 -0.000734926)
(9.74577e-05 8.57793e-07 -0.000734906)
(9.7495e-05 1.85108e-06 -0.000734863)
(9.7571e-05 4.07331e-06 -0.000734806)
(9.69972e-05 9.19584e-06 -0.000734066)
(9.70312e-05 2.06081e-05 -0.000731151)
(0.000142565 -3.81161e-09 -0.000739514)
(0.000142567 7.28305e-08 -0.000739516)
(0.00014257 1.84047e-07 -0.000739516)
(0.000142579 4.0354e-07 -0.000739519)
(0.0001424 8.4962e-07 -0.000739418)
(0.000142449 1.795e-06 -0.000739469)
(0.000142568 3.81393e-06 -0.000739627)
(0.000141653 7.63583e-06 -0.000739153)
(0.000141511 1.7301e-05 -0.000737244)
(0.000144101 -1.38059e-08 -0.000754284)
(0.000144102 7.23025e-08 -0.000754281)
(0.000144101 1.90027e-07 -0.000754271)
(0.000143866 4.22364e-07 -0.000754101)
(0.00014388 9.00075e-07 -0.000754078)
(0.000143917 1.94279e-06 -0.000754029)
(0.00014401 4.27364e-06 -0.000753957)
(0.000143422 9.71464e-06 -0.000753237)
(0.000143076 2.21079e-05 -0.00075055)
(0.000189135 5.51589e-09 -0.000751617)
(0.000189137 8.11939e-08 -0.000751619)
(0.000189142 1.96392e-07 -0.00075162)
(0.000189157 4.21545e-07 -0.000751629)
(0.000188961 8.82568e-07 -0.000751565)
(0.000188999 1.85218e-06 -0.000751604)
(0.000189109 3.93122e-06 -0.000751733)
(0.000188744 8.17599e-06 -0.000751697)
(0.00018877 1.82507e-05 -0.000750112)
(0.000190806 -7.12965e-09 -0.00076542)
(0.000190808 8.18227e-08 -0.000765421)
(0.000190811 2.06785e-07 -0.000765415)
(0.000190817 4.51269e-07 -0.000765407)
(0.000190821 9.58391e-07 -0.00076538)
(0.000190857 2.06307e-06 -0.000765318)
(0.000190936 4.5321e-06 -0.000765199)
(0.000190239 1.02399e-05 -0.000764511)
(0.000189522 2.31364e-05 -0.000762083)
(0.000239299 1.01858e-08 -0.000755846)
(0.0002393 8.62936e-08 -0.000755847)
(0.000239303 2.05528e-07 -0.000755848)
(0.000239311 4.38577e-07 -0.000755854)
(0.000239105 9.14558e-07 -0.000755781)
(0.000239151 1.91391e-06 -0.000755831)
(0.000239281 4.03693e-06 -0.000755978)
(0.000238226 7.94564e-06 -0.000755662)
(0.000238171 1.77799e-05 -0.000754458)
(0.000242076 -5.07958e-09 -0.000770582)
(0.000242078 8.9115e-08 -0.000770582)
(0.00024208 2.19203e-07 -0.000770576)
(0.000242087 4.73825e-07 -0.000770562)
(0.0002421 1.01191e-06 -0.000770538)
(0.000242126 2.17957e-06 -0.000770473)
(0.000242205 4.78311e-06 -0.00077036)
(0.000241456 1.08735e-05 -0.000769779)
(0.000240922 2.47587e-05 -0.000767692)
(0.000294354 2.11454e-08 -0.000767351)
(0.000294354 9.48393e-08 -0.00076735)
(0.000294352 2.18426e-07 -0.000767349)
(0.000294358 4.58994e-07 -0.000767353)
(0.000294335 9.55614e-07 -0.000767358)
(0.000294145 1.96708e-06 -0.000767374)
(0.000294278 4.15768e-06 -0.000767524)
(0.000293968 8.69848e-06 -0.000767618)
(0.00029333 1.95242e-05 -0.00076603)
(0.000298614 7.01849e-09 -0.000779715)
(0.000298616 9.86218e-08 -0.000779717)
(0.000298616 2.35011e-07 -0.00077971)
(0.000298615 5.05781e-07 -0.000779693)
(0.000298615 1.07496e-06 -0.000779654)
(0.000298626 2.30845e-06 -0.000779596)
(0.000298655 5.08313e-06 -0.000779476)
(0.000298007 1.15082e-05 -0.000778861)
(0.000297189 2.61477e-05 -0.000776169)
(0.000352788 2.65255e-08 -0.000763863)
(0.000352788 1.00615e-07 -0.000763866)
(0.000352786 2.28532e-07 -0.000763876)
(0.00035279 4.76875e-07 -0.000763883)
(0.000352804 9.82459e-07 -0.0007639)
(0.000352565 2.01094e-06 -0.000763901)
(0.00035268 4.20698e-06 -0.000764074)
(0.00035149 8.21742e-06 -0.000764021)
(0.000350894 1.85241e-05 -0.000762572)
(0.00035857 9.05231e-09 -0.000779414)
(0.00035857 1.05106e-07 -0.000779418)
(0.000358558 2.48295e-07 -0.000779413)
(0.00035855 5.32848e-07 -0.000779397)
(0.000358549 1.12906e-06 -0.000779361)
(0.00035856 2.42318e-06 -0.000779298)
(0.000358581 5.31535e-06 -0.000779176)
(0.00035784 1.20287e-05 -0.000778645)
(0.000356618 2.70812e-05 -0.000775852)
(0.000416089 2.94147e-08 -0.000767178)
(0.0004161 9.58282e-08 -0.000767183)
(0.000415802 2.23411e-07 -0.000767178)
(0.000415811 4.79477e-07 -0.000767194)
(0.000415826 9.83466e-07 -0.000767208)
(0.000415812 2.02912e-06 -0.00076725)
(0.000415915 4.22476e-06 -0.000767403)
(0.000415798 8.89275e-06 -0.000767577)
(0.000415022 2.00693e-05 -0.00076597)
(0.00042443 1.77796e-08 -0.00078172)
(0.000424434 1.05987e-07 -0.000781724)
(0.000424432 2.53127e-07 -0.000781737)
(0.00042443 5.57691e-07 -0.000781729)
(0.000424422 1.18888e-06 -0.000781689)
(0.000424405 2.55237e-06 -0.000781608)
(0.00042437 5.60177e-06 -0.000781461)
(0.000423768 1.26187e-05 -0.000780843)
(0.000422116 2.85758e-05 -0.000777899)
(0.000489451 3.65084e-08 -0.000763511)
(0.000489447 1.00274e-07 -0.000763513)
(0.00048907 2.3279e-07 -0.000763532)
(0.000489071 5.03675e-07 -0.000763549)
(0.000489088 1.03004e-06 -0.000763565)
(0.000489104 2.10391e-06 -0.000763622)
(0.000489172 4.4207e-06 -0.000763908)
(0.000488087 8.66721e-06 -0.000764038)
(0.000487074 1.99372e-05 -0.000762288)
(0.000497735 2.24801e-08 -0.000777736)
(0.000497735 1.13717e-07 -0.000777738)
(0.000497729 2.70412e-07 -0.000777741)
(0.000497726 5.9358e-07 -0.000777724)
(0.000497715 1.26428e-06 -0.00077768)
(0.000497669 2.71015e-06 -0.000777596)
(0.000497615 5.9627e-06 -0.000777424)
(0.000496922 1.34437e-05 -0.000776796)
(0.000494489 2.98889e-05 -0.000773138)
(0.0005621 2.5103e-08 -0.000751481)
(0.000562098 1.04316e-07 -0.000751482)
(0.000562033 2.39177e-07 -0.000751493)
(0.000562025 4.87205e-07 -0.000751503)
(0.000562049 1.00473e-06 -0.000751525)
(0.000561975 2.18692e-06 -0.000751569)
(0.000577275 7.03746e-06 -0.000749456)
(0.000562148 8.65778e-06 -0.000751583)
(0.000560934 2.10836e-05 -0.000749863)
(0.000573125 1.43218e-08 -0.000763734)
(0.00057312 1.20812e-07 -0.000763729)
(0.00057311 2.95408e-07 -0.000763713)
(0.000573098 6.42964e-07 -0.000763687)
(0.000573071 1.38723e-06 -0.000763632)
(0.000572877 3.00232e-06 -0.000763477)
(0.000572354 6.15628e-06 -0.000762788)
(0.000572097 1.39127e-05 -0.000762409)
(0.000569635 3.16993e-05 -0.000758594)
(0.000645594 2.68021e-08 -0.000727657)
(0.000645596 1.07783e-07 -0.000727658)
(0.0006456 2.43139e-07 -0.00072766)
(0.000645616 4.97043e-07 -0.000727665)
(0.00064566 9.9936e-07 -0.000727684)
(0.000645909 1.98228e-06 -0.000727732)
(0.000646962 3.42005e-06 -0.000728189)
(0.000645219 8.17632e-06 -0.000728694)
(0.000642879 1.87981e-05 -0.000727419)
(0.00065638 1.15106e-08 -0.000738996)
(0.000656377 1.29501e-07 -0.00073899)
(0.000656371 3.16174e-07 -0.000738978)
(0.000656363 6.78997e-07 -0.000738948)
(0.000656363 1.43419e-06 -0.000738887)
(0.000656458 3.07873e-06 -0.000738797)
(0.00065651 6.94033e-06 -0.000738836)
(0.000655911 1.55683e-05 -0.000738061)
(0.000651477 3.44667e-05 -0.00073388)
(0.000722496 3.14607e-09 -0.000685848)
(0.000722498 8.47209e-08 -0.000685851)
(0.000722508 2.03703e-07 -0.000685853)
(0.000722531 4.28953e-07 -0.000685857)
(0.000722586 8.86061e-07 -0.000685869)
(0.00072272 1.83858e-06 -0.000685903)
(0.000722624 3.8806e-06 -0.000686145)
(0.000722751 8.28307e-06 -0.000686345)
(0.000720836 1.98692e-05 -0.000684803)
(0.000733209 9.33385e-09 -0.000694588)
(0.000733205 1.4615e-07 -0.00069458)
(0.000733206 3.62165e-07 -0.000694563)
(0.000733209 7.78504e-07 -0.000694524)
(0.000733221 1.64518e-06 -0.000694446)
(0.000733248 3.51988e-06 -0.000694309)
(0.000733243 7.67618e-06 -0.000694033)
(0.000732531 1.69531e-05 -0.000693252)
(0.000727584 3.67466e-05 -0.000689089)
(0.000796401 4.75553e-09 -0.00062646)
(0.000796408 9.22768e-08 -0.000626461)
(0.00079642 2.22414e-07 -0.000626461)
(0.000796447 4.69168e-07 -0.000626463)
(0.000796502 9.70415e-07 -0.000626475)
(0.000796612 2.01115e-06 -0.000626517)
(0.000796818 4.17078e-06 -0.000626636)
(0.000797044 8.81879e-06 -0.000626717)
(0.000794879 2.10813e-05 -0.000625067)
(0.000807011 1.15409e-08 -0.000632539)
(0.000807011 1.64492e-07 -0.000632529)
(0.000807011 4.05379e-07 -0.000632509)
(0.00080701 8.70215e-07 -0.00063247)
(0.000807001 1.8307e-06 -0.000632396)
(0.000806967 3.86941e-06 -0.000632269)
(0.00080683 8.28093e-06 -0.000632032)
(0.000805977 1.79808e-05 -0.000631204)
(0.000800643 3.84352e-05 -0.000626519)
(0.000865522 7.44516e-09 -0.000545877)
(0.000865528 1.03568e-07 -0.000545878)
(0.000865542 2.47508e-07 -0.000545878)
(0.000865569 5.17057e-07 -0.00054588)
(0.000865627 1.05592e-06 -0.000545892)
(0.000865745 2.15353e-06 -0.000545931)
(0.000865971 4.40371e-06 -0.000546032)
(0.000866189 9.21457e-06 -0.000546077)
(0.000864027 2.18068e-05 -0.000544269)
(0.000874753 1.13907e-08 -0.000552774)
(0.000874751 1.84305e-07 -0.000552764)
(0.000874748 4.52243e-07 -0.000552744)
(0.000874741 9.62078e-07 -0.000552703)
(0.00087472 2.00029e-06 -0.000552629)
(0.000874669 4.17252e-06 -0.000552499)
(0.000874507 8.81156e-06 -0.000552253)
(0.000873581 1.88643e-05 -0.00055144)
(0.000868244 3.99735e-05 -0.000547281)
(0.00093267 6.74952e-09 -0.000453226)
(0.000932678 1.15645e-07 -0.000453227)
(0.000932691 2.75417e-07 -0.000453225)
(0.000932721 5.70608e-07 -0.000453224)
(0.000932782 1.15352e-06 -0.000453229)
(0.00093291 2.32725e-06 -0.000453255)
(0.000933149 4.7111e-06 -0.000453329)
(0.000933321 9.79457e-06 -0.000453366)
(0.000930131 2.31604e-05 -0.000452158)
(0.000939893 1.48136e-08 -0.000458747)
(0.000939889 2.04227e-07 -0.000458737)
(0.000939883 4.97785e-07 -0.000458717)
(0.000939868 1.04968e-06 -0.000458679)
(0.000939833 2.16094e-06 -0.000458609)
(0.000939759 4.46397e-06 -0.000458492)
(0.000939529 9.34318e-06 -0.000458285)
(0.000938269 1.98483e-05 -0.000457685)
(0.000931352 4.17465e-05 -0.000454592)
(0.000984237 5.99298e-09 -0.000343002)
(0.000984245 1.25097e-07 -0.000343003)
(0.000984259 2.96884e-07 -0.000343001)
(0.000984288 6.10318e-07 -0.000343001)
(0.000984349 1.22217e-06 -0.000343005)
(0.000984478 2.4392e-06 -0.00034303)
(0.000984706 4.88108e-06 -0.000343105)
(0.000984722 1.0089e-05 -0.000343175)
(0.000980192 2.43161e-05 -0.000342489)
(0.000990113 1.57246e-08 -0.000349679)
(0.000990107 2.22051e-07 -0.000349671)
(0.000990096 5.38798e-07 -0.000349653)
(0.000990072 1.12801e-06 -0.000349619)
(0.000990024 2.30301e-06 -0.000349559)
(0.000989924 4.71552e-06 -0.000349464)
(0.000989614 9.7699e-06 -0.000349316)
(0.000987869 2.04384e-05 -0.00034895)
(0.000978131 4.17703e-05 -0.000347033)
(0.00101835 6.28087e-09 -0.000219805)
(0.00101836 1.32728e-07 -0.000219805)
(0.00101837 3.13728e-07 -0.000219803)
(0.0010184 6.41029e-07 -0.000219801)
(0.00101846 1.27413e-06 -0.000219802)
(0.00101859 2.52084e-06 -0.000219816)
(0.00101883 4.99167e-06 -0.000219871)
(0.00101884 1.01682e-05 -0.000219947)
(0.0010145 2.38981e-05 -0.000219392)
(0.00102312 1.73744e-08 -0.000227948)
(0.00102311 2.34728e-07 -0.000227942)
(0.00102309 5.67219e-07 -0.000227928)
(0.00102306 1.18046e-06 -0.000227902)
(0.001023 2.39364e-06 -0.000227858)
(0.00102289 4.86684e-06 -0.000227792)
(0.00102256 1.00175e-05 -0.000227698)
(0.00102079 2.08426e-05 -0.000227459)
(0.00101085 4.24157e-05 -0.000226133)
(0.00102559 3.7535e-09 -8.81385e-05)
(0.0010256 1.353e-07 -8.81373e-05)
(0.00102561 3.1963e-07 -8.81356e-05)
(0.00102564 6.49894e-07 -8.81335e-05)
(0.0010257 1.28344e-06 -8.8132e-05)
(0.00102584 2.51861e-06 -8.81366e-05)
(0.00102608 4.93442e-06 -8.81602e-05)
(0.00102609 9.92337e-06 -8.81739e-05)
(0.00102138 2.32104e-05 -8.80881e-05)
(0.00103076 1.76661e-08 -9.83785e-05)
(0.00103076 2.42231e-07 -9.83753e-05)
(0.00103074 5.83613e-07 -9.83655e-05)
(0.00103071 1.20938e-06 -9.83462e-05)
(0.00103064 2.43906e-06 -9.83121e-05)
(0.00103052 4.92768e-06 -9.82581e-05)
(0.0010302 1.00687e-05 -9.81818e-05)
(0.00102841 2.07727e-05 -9.80404e-05)
(0.00101785 4.1772e-05 -9.70742e-05)
(-1.51937e-05 -7.39791e-09 -0.000653155)
(-1.51943e-05 5.91119e-08 -0.000653157)
(-1.51916e-05 1.46064e-07 -0.00065316)
(-1.5165e-05 3.06587e-07 -0.000653181)
(-1.49712e-05 6.61503e-07 -0.000653203)
(-1.49875e-05 1.45554e-06 -0.00065323)
(-1.49142e-05 3.04128e-06 -0.000653411)
(-1.42603e-05 6.16785e-06 -0.000653525)
(-1.37084e-05 1.4005e-05 -0.000650815)
(-4.7581e-05 -3.874e-09 -0.00062878)
(-4.75895e-05 6.79955e-08 -0.000628776)
(-4.76659e-05 1.69873e-07 -0.000628723)
(-4.76617e-05 3.28194e-07 -0.000628717)
(-5.00168e-05 7.24742e-07 -0.000629032)
(-4.737e-05 1.4021e-06 -0.000628915)
(-4.73341e-05 3.00658e-06 -0.000629023)
(-4.96951e-05 7.95695e-06 -0.000629267)
(-4.87599e-05 1.75492e-05 -0.000624363)
(-8.34511e-05 -3.914e-08 -0.00060745)
(-8.34148e-05 -6.1746e-08 -0.000607509)
(-8.05665e-05 1.248e-07 -0.000608297)
(-8.0582e-05 2.72235e-07 -0.000608257)
(-8.08013e-05 5.81984e-07 -0.000608268)
(-8.33733e-05 1.70999e-06 -0.000607618)
(-8.33256e-05 3.30559e-06 -0.000607902)
(-8.02434e-05 5.66926e-06 -0.000608822)
(-7.89656e-05 1.29093e-05 -0.000604477)
(-0.000108316 -1.36011e-08 -0.000569754)
(-0.000108318 6.54697e-08 -0.000569763)
(-0.00010844 2.06229e-07 -0.000569776)
(-0.000108431 2.74099e-07 -0.000569814)
(-0.000108421 5.57902e-07 -0.000569823)
(-0.00010819 1.14759e-06 -0.000569884)
(-0.000108144 2.56107e-06 -0.00057014)
(-0.000107812 5.14013e-06 -0.000570461)
(-0.000106243 1.14051e-05 -0.000565663)
(-0.000132649 -3.46454e-09 -0.000533203)
(-0.00013265 4.41667e-08 -0.000533203)
(-0.000132564 1.107e-07 -0.00053319)
(-0.000132559 2.53165e-07 -0.000533183)
(-0.000132548 5.40235e-07 -0.000533196)
(-0.000132533 1.12469e-06 -0.000533279)
(-0.000132532 2.26769e-06 -0.000533545)
(-0.000132307 4.37274e-06 -0.000533732)
(-0.000131129 9.47259e-06 -0.000529504)
(-0.000158651 -3.12336e-10 -0.000507602)
(-0.000158653 5.15788e-08 -0.000507606)
(-0.00015855 1.27684e-07 -0.000507637)
(-0.00015855 2.62233e-07 -0.000507632)
(-0.000158543 5.35732e-07 -0.000507642)
(-0.000158541 1.10608e-06 -0.000507709)
(-0.000158585 2.2621e-06 -0.000507966)
(-0.000158412 4.41731e-06 -0.00050826)
(-0.00015715 9.6815e-06 -0.000504608)
(-0.000184199 3.60965e-09 -0.000481592)
(-0.0001842 5.14282e-08 -0.000481594)
(-0.000184195 1.23731e-07 -0.000481596)
(-0.000184087 2.47684e-07 -0.00048162)
(-0.00018408 5.01432e-07 -0.000481629)
(-0.000184084 1.01902e-06 -0.000481703)
(-0.000184136 2.04244e-06 -0.00048198)
(-0.000183866 3.90678e-06 -0.000482249)
(-0.000181749 8.647e-06 -0.00047779)
(-0.000211354 6.78361e-09 -0.000459551)
(-0.000211355 5.17751e-08 -0.000459552)
(-0.000211355 1.19875e-07 -0.000459552)
(-0.000211229 2.48157e-07 -0.000459564)
(-0.000211234 4.9933e-07 -0.000459565)
(-0.000211261 1.00241e-06 -0.000459631)
(-0.000211361 1.96547e-06 -0.000459891)
(-0.000211117 3.55686e-06 -0.000460098)
(-0.000208999 7.50068e-06 -0.00045599)
(-0.000239546 1.01555e-08 -0.000442061)
(-0.000239547 5.21763e-08 -0.000442061)
(-0.000239549 1.17391e-07 -0.000442061)
(-0.00023954 2.43379e-07 -0.000442061)
(-0.000239424 4.78671e-07 -0.0004421)
(-0.000239471 9.58595e-07 -0.000442152)
(-0.000239623 1.88069e-06 -0.000442354)
(-0.000239557 3.54232e-06 -0.000442497)
(-0.000237037 7.90275e-06 -0.000438143)
(-0.000268848 1.41192e-08 -0.000418737)
(-0.000268849 5.65225e-08 -0.000418737)
(-0.000268851 1.24665e-07 -0.000418735)
(-0.000268857 2.55645e-07 -0.000418733)
(-0.000268719 5.10435e-07 -0.000418753)
(-0.000268778 1.02379e-06 -0.000418794)
(-0.000268955 2.01044e-06 -0.000418976)
(-0.000268902 3.68496e-06 -0.000419077)
(-0.000266194 7.92555e-06 -0.00041521)
(-0.000303214 1.57537e-08 -0.000404614)
(-0.000303214 5.45494e-08 -0.000404613)
(-0.000303217 1.20524e-07 -0.000404612)
(-0.000303225 2.45913e-07 -0.000404611)
(-0.000303217 4.98437e-07 -0.000404616)
(-0.000303093 9.85061e-07 -0.000404715)
(-0.000303256 1.96927e-06 -0.000404829)
(-0.000303398 3.8287e-06 -0.000404911)
(-0.00030102 8.46466e-06 -0.000402001)
(-0.000337359 1.50573e-08 -0.000377889)
(-0.000337361 5.72453e-08 -0.000377888)
(-0.000337364 1.2915e-07 -0.000377887)
(-0.000337371 2.65932e-07 -0.000377887)
(-0.000337387 5.41376e-07 -0.000377891)
(-0.000337267 1.08463e-06 -0.000378016)
(-0.000337418 2.17815e-06 -0.000378149)
(-0.000337555 4.25669e-06 -0.000378257)
(-0.000334865 9.55579e-06 -0.000375514)
(-0.000364427 7.24196e-09 -0.00034584)
(-0.000364427 4.24585e-08 -0.000345842)
(-0.000364431 1.01347e-07 -0.000345842)
(-0.000364441 2.13618e-07 -0.000345845)
(-0.000364461 4.42382e-07 -0.000345854)
(-0.000364487 9.13121e-07 -0.000345896)
(-0.000364592 1.83254e-06 -0.000346007)
(-0.000364708 3.57886e-06 -0.000346157)
(-0.000362767 8.25002e-06 -0.000344411)
(-0.000388426 5.55073e-09 -0.000305886)
(-0.000388428 4.57507e-08 -0.000305886)
(-0.000388434 1.09746e-07 -0.000305886)
(-0.000388445 2.29688e-07 -0.000305888)
(-0.000388469 4.6859e-07 -0.000305897)
(-0.00038852 9.47961e-07 -0.000305927)
(-0.000388636 1.87436e-06 -0.000306016)
(-0.00038876 3.61056e-06 -0.000306098)
(-0.000387002 8.2726e-06 -0.000304523)
(-0.000406779 6.82845e-09 -0.000257931)
(-0.000406781 5.19602e-08 -0.000257931)
(-0.000406788 1.23487e-07 -0.00025793)
(-0.000406801 2.55429e-07 -0.000257931)
(-0.000406829 5.13592e-07 -0.000257935)
(-0.00040689 1.02286e-06 -0.000257955)
(-0.000407028 1.99576e-06 -0.000258012)
(-0.000407173 3.82298e-06 -0.000258027)
(-0.000405301 8.56458e-06 -0.000256787)
(-0.000416284 8.79939e-09 -0.000203931)
(-0.000416286 5.87875e-08 -0.00020393)
(-0.000416293 1.38338e-07 -0.000203929)
(-0.000416308 2.83499e-07 -0.000203928)
(-0.000416338 5.64197e-07 -0.00020393)
(-0.000416406 1.1122e-06 -0.000203941)
(-0.000416554 2.15617e-06 -0.000203982)
(-0.000416705 4.14295e-06 -0.000203994)
(-0.000414596 9.35389e-06 -0.000203083)
(-0.000415723 1.0857e-08 -0.0001471)
(-0.000415725 6.44068e-08 -0.000147099)
(-0.000415732 1.50315e-07 -0.000147098)
(-0.000415747 3.05665e-07 -0.000147098)
(-0.000415779 6.031e-07 -0.000147099)
(-0.000415851 1.17785e-06 -0.00014711)
(-0.000416003 2.26263e-06 -0.000147145)
(-0.000416125 4.30999e-06 -0.000147192)
(-0.000414032 9.44265e-06 -0.000146918)
(-0.000417691 1.24501e-08 -9.34483e-05)
(-0.000417693 7.01856e-08 -9.34477e-05)
(-0.0004177 1.62834e-07 -9.34465e-05)
(-0.000417715 3.29186e-07 -9.34456e-05)
(-0.000417747 6.45385e-07 -9.34462e-05)
(-0.00041782 1.25241e-06 -9.34528e-05)
(-0.000417978 2.3921e-06 -9.34726e-05)
(-0.000418112 4.55252e-06 -9.34628e-05)
(-0.00041553 1.02113e-05 -9.29131e-05)
(-0.000409679 1.38074e-08 -3.71856e-05)
(-0.000409681 7.18336e-08 -3.7185e-05)
(-0.000409687 1.65444e-07 -3.71847e-05)
(-0.000409702 3.3194e-07 -3.71853e-05)
(-0.000409734 6.4486e-07 -3.71884e-05)
(-0.000409807 1.23737e-06 -3.71985e-05)
(-0.000409967 2.32727e-06 -3.72192e-05)
(-0.00041009 4.32652e-06 -3.71928e-05)
(-0.00040752 9.46968e-06 -3.65722e-05)
(-1.20049e-05 -9.19052e-09 -0.000671901)
(-1.20077e-05 5.98614e-08 -0.000671898)
(-1.20058e-05 1.48338e-07 -0.000671895)
(-1.19676e-05 3.12367e-07 -0.000671913)
(-1.17132e-05 7.00164e-07 -0.000671962)
(-1.16937e-05 1.55276e-06 -0.0006719)
(-1.15996e-05 3.41751e-06 -0.000671895)
(-1.07193e-05 7.81218e-06 -0.000671865)
(-1.03794e-05 1.74984e-05 -0.000668217)
(-4.54826e-05 -7.45013e-09 -0.00064346)
(-4.54955e-05 6.83648e-08 -0.000643443)
(-4.55293e-05 1.62602e-07 -0.000643384)
(-4.55395e-05 3.11233e-07 -0.000643366)
(-4.56858e-05 6.5847e-07 -0.000643483)
(-4.54534e-05 1.52019e-06 -0.000643443)
(-4.53191e-05 3.32433e-06 -0.000643427)
(-4.45598e-05 7.32778e-06 -0.000643559)
(-4.39244e-05 1.59414e-05 -0.000639886)
(-8.04521e-05 -1.03848e-08 -0.000621837)
(-8.04333e-05 1.34039e-08 -0.000621847)
(-8.01321e-05 1.12899e-07 -0.000621788)
(-8.01916e-05 3.10448e-07 -0.00062173)
(-8.01653e-05 6.78932e-07 -0.000621687)
(-8.04028e-05 1.41881e-06 -0.00062176)
(-8.03886e-05 3.07139e-06 -0.000621883)
(-7.92085e-05 7.12128e-06 -0.000621804)
(-7.83659e-05 1.54862e-05 -0.000616639)
(-0.000107532 -6.40054e-09 -0.000584686)
(-0.000107543 2.57687e-08 -0.00058469)
(-0.000107694 8.99775e-08 -0.000584717)
(-0.000107624 2.71278e-07 -0.00058479)
(-0.000107613 6.3243e-07 -0.00058474)
(-0.000107412 1.34363e-06 -0.00058469)
(-0.000107293 2.89796e-06 -0.000584806)
(-0.000106662 6.62432e-06 -0.000585164)
(-0.000105354 1.41772e-05 -0.000579482)
(-0.000133588 -4.42947e-09 -0.000547988)
(-0.000133591 4.34721e-08 -0.000547985)
(-0.000133584 1.17232e-07 -0.000547969)
(-0.00013342 2.60079e-07 -0.000548049)
(-0.000133404 5.6798e-07 -0.000548032)
(-0.000133378 1.20324e-06 -0.000548054)
(-0.000133343 2.6249e-06 -0.000548206)
(-0.000132711 5.90314e-06 -0.000548485)
(-0.000131409 1.2158e-05 -0.000543085)
(-0.000159127 -1.26735e-10 -0.000518734)
(-0.000159129 4.93879e-08 -0.000518736)
(-0.00015912 1.26079e-07 -0.000518734)
(-0.000159096 2.71447e-07 -0.000518746)
(-0.000159076 5.59423e-07 -0.000518741)
(-0.00015906 1.17945e-06 -0.00051875)
(-0.000159063 2.59788e-06 -0.000518878)
(-0.000158818 5.95119e-06 -0.000519)
(-0.00015764 1.30608e-05 -0.000514615)
(-0.000185877 9.61589e-10 -0.000491858)
(-0.000185878 5.15662e-08 -0.000491858)
(-0.000185881 1.26228e-07 -0.000491854)
(-0.000185868 2.65996e-07 -0.000491845)
(-0.000185854 5.42898e-07 -0.000491831)
(-0.000185839 1.12806e-06 -0.000491849)
(-0.000185845 2.45891e-06 -0.000492008)
(-0.000185016 5.62395e-06 -0.00049235)
(-0.000182667 1.16737e-05 -0.000487045)
(-0.00021367 3.72164e-09 -0.000470445)
(-0.000213671 5.16961e-08 -0.000470446)
(-0.000213672 1.22973e-07 -0.000470443)
(-0.000213668 2.59023e-07 -0.000470433)
(-0.000213662 5.3132e-07 -0.000470415)
(-0.000213667 1.09837e-06 -0.000470423)
(-0.000213726 2.36815e-06 -0.000470564)
(-0.000213805 5.30483e-06 -0.000470585)
(-0.00021117 1.07463e-05 -0.000465328)
(-0.000243202 7.23144e-09 -0.00045148)
(-0.000243203 5.545e-08 -0.00045148)
(-0.000243203 1.29129e-07 -0.000451475)
(-0.000243205 2.6931e-07 -0.00045146)
(-0.000243205 5.50906e-07 -0.000451438)
(-0.000243233 1.13657e-06 -0.000451426)
(-0.000243335 2.44831e-06 -0.000451503)
(-0.000242583 5.5381e-06 -0.000451594)
(-0.000239427 1.13931e-05 -0.000446061)
(-0.000271823 6.73939e-09 -0.00042929)
(-0.000271824 5.81147e-08 -0.000429289)
(-0.000271824 1.35875e-07 -0.000429282)
(-0.000271828 2.84697e-07 -0.000429268)
(-0.00027184 5.8797e-07 -0.000429239)
(-0.000271878 1.22407e-06 -0.000429205)
(-0.000272012 2.63601e-06 -0.000429239)
(-0.000272425 5.89709e-06 -0.000429061)
(-0.000268987 1.19588e-05 -0.000424082)
(-0.000309209 1.22161e-08 -0.000411684)
(-0.000309209 6.45677e-08 -0.000411682)
(-0.000309209 1.51181e-07 -0.000411674)
(-0.00030921 3.18358e-07 -0.000411658)
(-0.000309217 6.60157e-07 -0.000411621)
(-0.00030925 1.38058e-06 -0.000411568)
(-0.000309345 2.96847e-06 -0.000411543)
(-0.000308442 6.60475e-06 -0.000411535)
(-0.000304713 1.37684e-05 -0.000407092)
(-0.000342542 6.61887e-09 -0.000387274)
(-0.00034254 6.73347e-08 -0.000387271)
(-0.00034254 1.64534e-07 -0.000387262)
(-0.000342538 3.51391e-07 -0.000387244)
(-0.000342538 7.35482e-07 -0.000387208)
(-0.000342555 1.55436e-06 -0.000387149)
(-0.000342626 3.3695e-06 -0.00038711)
(-0.000342448 7.49845e-06 -0.000386954)
(-0.000338308 1.56872e-05 -0.000382811)
(-0.000371512 9.30938e-09 -0.000353439)
(-0.00037151 7.73565e-08 -0.000353434)
(-0.000371509 1.8952e-07 -0.000353425)
(-0.000371507 4.03022e-07 -0.000353407)
(-0.0003715 8.3735e-07 -0.000353374)
(-0.000371498 1.74683e-06 -0.000353325)
(-0.000371514 3.70919e-06 -0.000353313)
(-0.000371189 8.00755e-06 -0.000353141)
(-0.000366505 1.61659e-05 -0.00034929)
(-0.000396512 7.01262e-09 -0.000312831)
(-0.00039651 8.59312e-08 -0.000312826)
(-0.000396509 2.11139e-07 -0.000312816)
(-0.000396505 4.45484e-07 -0.000312798)
(-0.000396495 9.13767e-07 -0.000312766)
(-0.000396482 1.8728e-06 -0.000312723)
(-0.000396486 3.88152e-06 -0.000312692)
(-0.000396158 8.14272e-06 -0.000312421)
(-0.000391702 1.60846e-05 -0.00030877)
(-0.0004145 1.00785e-08 -0.000265416)
(-0.000414498 9.78688e-08 -0.00026541)
(-0.000414495 2.37604e-07 -0.000265399)
(-0.000414489 4.95771e-07 -0.000265378)
(-0.000414477 1.00431e-06 -0.00026534)
(-0.000414466 2.03188e-06 -0.000265281)
(-0.000414475 4.15757e-06 -0.000265203)
(-0.00041412 8.61943e-06 -0.000264847)
(-0.000409512 1.70101e-05 -0.000261561)
(-0.000424147 1.24261e-08 -0.000211971)
(-0.000424144 1.1038e-07 -0.000211965)
(-0.000424139 2.65554e-07 -0.000211954)
(-0.000424131 5.49251e-07 -0.000211931)
(-0.000424114 1.10246e-06 -0.000211892)
(-0.000424094 2.20993e-06 -0.000211829)
(-0.000424085 4.47874e-06 -0.000211745)
(-0.000423667 9.19869e-06 -0.000211499)
(-0.000418883 1.81454e-05 -0.000209427)
(-0.00042423 1.43502e-08 -0.000155723)
(-0.000424226 1.21843e-07 -0.000155719)
(-0.000424219 2.91136e-07 -0.000155708)
(-0.000424207 5.97895e-07 -0.000155688)
(-0.000424184 1.19095e-06 -0.000155654)
(-0.000424156 2.36772e-06 -0.000155598)
(-0.000424125 4.74795e-06 -0.000155524)
(-0.000423657 9.57831e-06 -0.000155381)
(-0.000419019 1.83917e-05 -0.000154373)
(-0.000424485 1.56269e-08 -9.91394e-05)
(-0.00042448 1.29519e-07 -9.91362e-05)
(-0.000424472 3.07542e-07 -9.91293e-05)
(-0.000424456 6.27258e-07 -9.91172e-05)
(-0.000424427 1.24038e-06 -9.90979e-05)
(-0.000424391 2.44937e-06 -9.90709e-05)
(-0.000424353 4.88694e-06 -9.90323e-05)
(-0.000423812 9.82235e-06 -9.88652e-05)
(-0.00041841 1.85196e-05 -9.76023e-05)
(-0.000416798 1.62837e-08 -4.34618e-05)
(-0.000416793 1.34256e-07 -4.34603e-05)
(-0.000416784 3.17168e-07 -4.34566e-05)
(-0.000416767 6.4259e-07 -4.34506e-05)
(-0.000416736 1.26015e-06 -4.3443e-05)
(-0.000416699 2.46368e-06 -4.34366e-05)
(-0.000416668 4.85977e-06 -4.34253e-05)
(-0.000416147 9.65379e-06 -4.32534e-05)
(-0.000410623 1.80678e-05 -4.18482e-05)
(2.85846e-06 0.000328451 -0.000150837)
(-3.59932e-06 0.000323452 -0.000137816)
(-9.50301e-06 0.000319885 -0.000125734)
(-1.44348e-05 0.000317274 -0.000114844)
(-1.93733e-05 0.000315542 -0.000104956)
(-2.45704e-05 0.00031394 -9.56511e-05)
(-2.89436e-05 0.000312385 -8.74697e-05)
(-3.35768e-05 0.000310234 -7.94008e-05)
(-3.82279e-05 0.000307146 -7.1721e-05)
(-4.28684e-05 0.000303729 -6.44134e-05)
(-4.76798e-05 0.000300249 -5.73068e-05)
(-5.28546e-05 0.000296926 -5.02023e-05)
(-5.84446e-05 0.000293248 -4.33125e-05)
(-6.36169e-05 0.000288923 -3.58879e-05)
(-6.78563e-05 0.000284399 -2.83067e-05)
(-7.11497e-05 0.000280065 -2.06489e-05)
(-7.49855e-05 0.000275826 -1.28479e-05)
(-7.99635e-05 0.000271925 -5.38061e-06)
(-8.53615e-05 0.00026818 1.35996e-06)
(1.496e-06 0.000329504 -0.000135834)
(-4.75333e-06 0.000324664 -0.000124193)
(-9.50102e-06 0.000321028 -0.000113592)
(-1.46347e-05 0.000318054 -0.000104117)
(-1.97879e-05 0.000315272 -9.53399e-05)
(-2.4646e-05 0.000312811 -8.7187e-05)
(-2.94568e-05 0.000310145 -7.96493e-05)
(-3.39891e-05 0.000307023 -7.25323e-05)
(-3.82653e-05 0.000303445 -6.55908e-05)
(-4.23413e-05 0.000299774 -5.89362e-05)
(-4.60301e-05 0.000296085 -5.24512e-05)
(-4.92429e-05 0.000292787 -4.59612e-05)
(-5.26035e-05 0.000289913 -3.93708e-05)
(-5.68536e-05 0.000287047 -3.30115e-05)
(-6.12649e-05 0.000283658 -2.63267e-05)
(-6.57438e-05 0.000279803 -1.89318e-05)
(-6.98476e-05 0.000275714 -1.16967e-05)
(-7.34985e-05 0.000272357 -5.05498e-06)
(-7.7501e-05 0.000269643 1.33802e-06)
(8.00092e-06 0.000339785 -0.00014374)
(2.02508e-06 0.000334193 -0.000130425)
(-4.1995e-06 0.000329778 -0.000118069)
(-9.21482e-06 0.000326488 -0.000107271)
(-1.38368e-05 0.000323858 -9.72523e-05)
(-1.90368e-05 0.000321109 -8.79653e-05)
(-2.37412e-05 0.000318419 -7.95436e-05)
(-2.83561e-05 0.000315167 -7.15729e-05)
(-3.28862e-05 0.000311374 -6.40293e-05)
(-3.73796e-05 0.000307401 -5.6894e-05)
(-4.20541e-05 0.000303292 -4.99954e-05)
(-4.70825e-05 0.000299277 -4.31498e-05)
(-5.26891e-05 0.000295583 -3.62768e-05)
(-5.83583e-05 0.00029191 -2.91104e-05)
(-6.34516e-05 0.000287999 -2.13097e-05)
(-6.78318e-05 0.000284408 -1.32362e-05)
(-7.14125e-05 0.000281542 -5.82117e-06)
(-7.5661e-05 0.000278503 1.09677e-06)
(-8.10297e-05 0.000275197 7.62715e-06)
(6.58894e-06 0.000338935 -0.000129556)
(-7.18657e-07 0.000332959 -0.000117718)
(-5.85729e-06 0.000328292 -0.000107241)