/*--------------------------------*- C++ -*----------------------------------*\
| =========                 |                                                 |
| \\      /  F ield         | foam-extend: Open Source CFD                    |
|  \\    /   O peration     | Version:     3.1                                |
|   \\  /    A nd           | Web:         http://www.extend-project.de       |
|    \\/     M anipulation  |                                                 |
\*---------------------------------------------------------------------------*/
FoamFile
{
    version     2.0;
    format      ascii;
    class       volScalarField::DimensionedInternalField;
    location    "172800";
    object      V0;
}
// * * * * * * * * * * * * * * * * * * * * * * * * * * * * * * * * * * * * * //

dimensions      [0 3 0 0 0 0 0];

value           nonuniform List<scalar> 
21211
(
2.89891e-13
2.89808e-13
2.89877e-13
2.90055e-13
2.90362e-13
2.91189e-13
2.93329e-13
2.96366e-13
3.1003e-13
3.09071e-13
3.09078e-13
3.09207e-13
3.0944e-13
3.10051e-13
3.11471e-13
3.14881e-13
3.23382e-13
3.52206e-13
2.874e-13
2.87342e-13
2.87407e-13
2.8757e-13
2.87822e-13
2.88732e-13
2.90939e-13
2.93752e-13
3.09389e-13
3.07077e-13
3.07093e-13
3.07233e-13
3.075e-13
3.08205e-13
3.09699e-13
3.13355e-13
3.22294e-13
3.53332e-13
2.9115e-13
2.91076e-13
2.91147e-13
2.91272e-13
2.91612e-13
2.9255e-13
2.94935e-13
2.99154e-13
3.16644e-13
3.11174e-13
3.11182e-13
3.11343e-13
3.11658e-13
3.12392e-13
3.13996e-13
3.17887e-13
3.27483e-13
3.59329e-13
2.96634e-13
2.96598e-13
2.96676e-13
2.9687e-13
2.97159e-13
2.98187e-13
3.00625e-13
3.03484e-13
3.20911e-13
3.17747e-13
3.17768e-13
3.17915e-13
3.18186e-13
3.18975e-13
3.20717e-13
3.2497e-13
3.35343e-13
3.69586e-13
3.00192e-13
3.0012e-13
3.00205e-13
3.00356e-13
3.00671e-13
3.01755e-13
3.04493e-13
3.10133e-13
3.3069e-13
3.23873e-13
3.23885e-13
3.24055e-13
3.24438e-13
3.25306e-13
3.27182e-13
3.31761e-13
3.42705e-13
3.78616e-13
3.12234e-13
3.12219e-13
3.12312e-13
3.12545e-13
3.13045e-13
3.14264e-13
3.17227e-13
3.21641e-13
3.41015e-13
3.31183e-13
3.31223e-13
3.31407e-13
3.31822e-13
3.32738e-13
3.34776e-13
3.39757e-13
3.51711e-13
3.90758e-13
3.0736e-13
3.07259e-13
3.07355e-13
3.07578e-13
3.08308e-13
3.09049e-13
3.12191e-13
3.19224e-13
3.39955e-13
3.38488e-13
3.38519e-13
3.38718e-13
3.39165e-13
3.40165e-13
3.42387e-13
3.47688e-13
3.6057e-13
4.0237e-13
3.33682e-13
3.33756e-13
3.3393e-13
3.34211e-13
3.34836e-13
3.36196e-13
3.39712e-13
3.44555e-13
3.62408e-13
3.55333e-13
3.55408e-13
3.5562e-13
3.56116e-13
3.57217e-13
3.59671e-13
3.65557e-13
3.80026e-13
4.24176e-13
3.33755e-13
3.33625e-13
3.33198e-13
3.33447e-13
3.34092e-13
3.3591e-13
3.39688e-13
3.48281e-13
3.67321e-13
3.6817e-13
3.6821e-13
3.6846e-13
3.68992e-13
3.70184e-13
3.72863e-13
3.79209e-13
3.94948e-13
4.42104e-13
3.5643e-13
3.56462e-13
3.56237e-13
3.56604e-13
3.57344e-13
3.58905e-13
3.62602e-13
3.66919e-13
3.82313e-13
3.88762e-13
3.88859e-13
3.8916e-13
3.89784e-13
3.91158e-13
3.942e-13
4.0144e-13
4.1957e-13
4.71186e-13
3.61865e-13
3.61755e-13
3.62302e-13
3.62766e-13
3.63611e-13
3.65295e-13
3.23602e-12
3.82196e-13
3.96123e-13
4.04158e-13
4.0422e-13
4.0453e-13
4.0524e-13
4.06847e-13
4.10636e-13
4.17365e-13
4.38947e-13
4.93814e-13
3.93088e-13
3.93089e-13
3.93276e-13
3.93724e-13
3.94759e-13
3.97219e-13
3.78396e-13
3.99493e-13
4.1008e-13
4.31727e-13
4.31817e-13
4.32172e-13
4.32988e-13
4.34757e-13
4.38573e-13
4.47869e-13
4.71576e-13
5.35086e-13
4.0631e-13
4.0619e-13
4.06416e-13
4.06945e-13
4.08142e-13
4.10797e-13
4.19499e-13
4.3027e-13
4.36193e-13
4.4984e-13
4.49962e-13
4.50357e-13
4.51269e-13
4.53246e-13
4.5757e-13
4.67447e-13
4.92963e-13
5.63463e-13
4.30201e-13
4.30179e-13
4.30451e-13
4.31075e-13
4.32445e-13
4.35437e-13
4.41732e-13
4.52411e-13
4.5939e-13
4.7271e-13
4.72836e-13
4.73293e-13
4.74339e-13
4.7661e-13
4.81567e-13
4.92814e-13
5.21011e-13
5.97461e-13
4.67041e-13
4.67086e-13
4.67407e-13
4.68136e-13
4.69713e-13
4.73102e-13
4.80104e-13
4.91655e-13
4.99278e-13
5.00136e-13
5.00277e-13
5.00802e-13
5.01995e-13
5.04555e-13
5.10066e-13
5.22394e-13
5.52735e-13
6.31845e-13
4.78521e-13
4.78433e-13
4.78787e-13
4.79586e-13
4.813e-13
4.84938e-13
4.92303e-13
5.03942e-13
5.10295e-13
5.21207e-13
5.21365e-13
5.2195e-13
5.23272e-13
5.26083e-13
5.32079e-13
5.45412e-13
5.78147e-13
6.638e-13
4.98358e-13
4.98358e-13
4.98747e-13
4.99617e-13
5.0147e-13
5.05351e-13
5.12969e-13
5.23714e-13
5.24095e-13
5.40389e-13
5.40564e-13
5.41203e-13
5.4264e-13
5.45671e-13
5.52093e-13
5.66336e-13
6.01304e-13
6.88777e-13
5.09504e-13
5.09434e-13
5.09847e-13
5.10769e-13
5.12715e-13
5.16762e-13
5.24593e-13
5.35205e-13
5.33847e-13
5.5402e-13
5.54202e-13
5.54881e-13
5.56398e-13
5.59577e-13
5.66271e-13
5.81061e-13
6.17457e-13
7.10092e-13
5.20857e-13
5.20904e-13
5.21333e-13
5.22283e-13
5.24276e-13
5.2839e-13
5.36233e-13
5.46142e-13
5.39211e-13
5.57709e-13
5.57904e-13
5.58598e-13
5.6014e-13
5.63356e-13
5.70084e-13
5.84849e-13
6.21105e-13
7.1326e-13
2.91623e-13
2.91575e-13
2.91638e-13
2.91829e-13
2.92635e-13
2.93241e-13
2.95105e-13
2.99011e-13
3.11927e-13
2.86861e-13
2.86765e-13
2.86526e-13
2.86635e-13
2.32333e-12
2.88857e-13
2.90253e-13
2.37996e-12
2.55509e-12
2.34542e-12
2.33417e-12
2.82941e-13
2.82229e-13
2.80373e-13
2.34858e-12
2.37253e-12
2.84781e-13
2.89756e-13
2.84455e-13
2.84583e-13
2.86401e-13
2.8746e-13
2.87602e-13
2.86202e-13
2.87398e-13
2.90835e-13
2.97094e-13
2.91135e-13
2.91097e-13
2.9108e-13
2.9107e-13
2.91347e-13
2.92224e-13
2.94028e-13
2.95739e-13
2.98272e-13
2.87474e-13
2.87445e-13
2.87452e-13
2.87627e-13
2.8792e-13
2.88598e-13
2.90285e-13
2.91904e-13
2.94656e-13
2.88514e-13
2.88492e-13
2.88626e-13
2.8873e-13
2.88947e-13
2.89627e-13
2.91288e-13
2.92837e-13
2.91723e-13
2.9496e-13
2.94964e-13
2.95007e-13
2.95145e-13
2.95438e-13
2.96141e-13
2.97817e-13
2.99103e-13
2.96027e-13
2.95687e-13
2.95647e-13
2.95697e-13
2.95915e-13
2.96004e-13
2.96677e-13
2.98346e-13
2.997e-13
2.92951e-13
3.11419e-13
3.11437e-13
3.11493e-13
3.11629e-13
3.12047e-13
3.12843e-13
3.14687e-13
3.16321e-13
3.09658e-13
3.04699e-13
3.04622e-13
3.04684e-13
3.04824e-13
3.0528e-13
3.0574e-13
3.07679e-13
3.10037e-13
3.01136e-13
3.31712e-13
3.31808e-13
3.31887e-13
3.32069e-13
3.32457e-13
3.33207e-13
3.35459e-13
3.38087e-13
3.29503e-13
3.37352e-13
3.37313e-13
3.37407e-13
3.37623e-13
3.38094e-13
3.39377e-13
3.4189e-13
3.44902e-13
3.30985e-13
3.53851e-13
3.53878e-13
3.53988e-13
3.54239e-13
3.54776e-13
3.55951e-13
3.58448e-13
3.61434e-13
3.49417e-13
3.69296e-13
3.69327e-13
3.69453e-13
3.69735e-13
3.70334e-13
3.71617e-13
3.74254e-13
3.77381e-13
3.66676e-13
3.78951e-13
3.78991e-13
3.79131e-13
3.79445e-13
3.80101e-13
3.81485e-13
3.84282e-13
3.87715e-13
3.77585e-13
3.8922e-13
3.89264e-13
3.89416e-13
3.89755e-13
3.90458e-13
3.91926e-13
3.94835e-13
3.98423e-13
3.89543e-13
3.81232e-13
3.81209e-13
3.81365e-13
3.81709e-13
3.82421e-13
3.839e-13
3.86816e-13
3.90265e-13
3.80139e-13
3.87189e-13
3.87249e-13
3.87407e-13
3.87756e-13
3.88473e-13
3.89953e-13
3.92844e-13
3.96029e-13
3.84085e-13
3.08689e-13
3.08704e-13
3.08857e-13
3.09145e-13
3.09578e-13
3.10977e-13
3.1429e-13
3.22644e-13
3.50449e-13
3.0259e-13
3.02654e-13
3.02957e-13
3.03347e-13
3.0376e-13
3.05036e-13
3.07997e-13
3.15028e-13
3.40223e-13
3.02626e-13
3.02609e-13
3.03237e-13
3.03591e-13
3.04316e-13
3.04886e-13
3.07315e-13
3.15592e-13
3.41686e-13
3.0606e-13
3.06127e-13
3.05629e-13
3.05382e-13
3.05842e-13
3.07442e-13
3.09992e-13
3.16897e-13
3.41275e-13
3.04422e-13
3.04426e-13
3.04552e-13
3.04792e-13
3.05253e-13
3.06154e-13
3.08287e-13
3.14866e-13
3.36771e-13
3.03155e-13
3.03161e-13
3.03269e-13
3.03572e-13
3.04041e-13
3.04904e-13
3.06854e-13
3.13207e-13
3.34931e-13
3.04569e-13
3.04592e-13
3.04683e-13
3.04906e-13
3.05344e-13
3.06176e-13
3.08003e-13
3.13532e-13
3.34555e-13
3.09637e-13
3.09655e-13
3.09749e-13
3.09963e-13
3.1039e-13
3.11204e-13
3.1305e-13
3.19311e-13
3.38922e-13
3.16804e-13
3.16834e-13
3.16935e-13
3.17159e-13
3.17634e-13
3.18524e-13
3.20492e-13
3.25943e-13
3.46348e-13
3.25095e-13
3.25109e-13
3.25217e-13
3.25457e-13
3.25945e-13
3.26939e-13
3.29286e-13
3.3632e-13
3.5733e-13
3.3362e-13
3.33665e-13
3.33789e-13
3.34066e-13
3.34657e-13
3.3591e-13
3.38692e-13
3.45341e-13
3.67115e-13
3.51319e-13
3.5135e-13
3.51491e-13
3.51814e-13
3.52498e-13
3.53939e-13
3.57102e-13
3.65946e-13
3.90919e-13
3.63417e-13
3.63472e-13
3.63633e-13
3.64e-13
3.64775e-13
3.66382e-13
3.69891e-13
3.7911e-13
4.04734e-13
3.78005e-13
3.78054e-13
3.78236e-13
3.78647e-13
3.79505e-13
3.81274e-13
3.85036e-13
3.94487e-13
4.18932e-13
3.93012e-13
3.93069e-13
3.93275e-13
3.93734e-13
3.94681e-13
3.96608e-13
4.00663e-13
4.10627e-13
4.35797e-13
4.03067e-13
4.03131e-13
4.03359e-13
4.03862e-13
4.04891e-13
4.06969e-13
4.11302e-13
4.21712e-13
4.47439e-13
4.07008e-13
4.07078e-13
4.07321e-13
4.07856e-13
4.0894e-13
4.11117e-13
4.15638e-13
4.26318e-13
4.51927e-13
4.08554e-13
4.08625e-13
4.08878e-13
4.09429e-13
4.10539e-13
4.12751e-13
4.17335e-13
4.28387e-13
4.55372e-13
4.07098e-13
4.07174e-13
4.07429e-13
4.0798e-13
4.09082e-13
4.11257e-13
4.15708e-13
4.26309e-13
4.51603e-13
4.98297e-13
4.89865e-13
4.77102e-13
4.7103e-13
4.69848e-13
4.59132e-13
4.49102e-13
4.47713e-13
4.44794e-13
4.42643e-13
4.3985e-13
4.34172e-13
4.34192e-13
4.38364e-13
4.41268e-13
4.51099e-13
4.60209e-13
4.57728e-13
4.53682e-13
4.92409e-13
4.77978e-13
4.64326e-13
4.64175e-13
4.58312e-13
4.49894e-13
4.44249e-13
4.41008e-13
4.36792e-13
4.31901e-13
4.24842e-13
4.20442e-13
4.26726e-13
4.40439e-13
4.53535e-13
4.59263e-13
4.5124e-13
4.43446e-13
4.47491e-13
4.83451e-13
4.82227e-13
4.71292e-13
4.55614e-13
4.52497e-13
4.48639e-13
4.39196e-13
4.35565e-13
4.32926e-13
4.30781e-13
4.28163e-13
4.26284e-13
4.30294e-13
4.41726e-13
4.52402e-13
4.48461e-13
4.39044e-13
4.40727e-13
4.47802e-13
4.8504e-13
4.74187e-13
4.51768e-13
4.47348e-13
4.5061e-13
4.45882e-13
4.3777e-13
4.32463e-13
4.3147e-13
4.30562e-13
4.23321e-13
4.14662e-13
4.16076e-13
4.31892e-13
4.49894e-13
4.53807e-13
4.45586e-13
4.38409e-13
4.37659e-13
4.77523e-13
4.64869e-13
4.61128e-13
4.52837e-13
4.4295e-13
4.38121e-13
4.35641e-13
4.32083e-13
4.27723e-13
4.25656e-13
4.24649e-13
4.23599e-13
4.29446e-13
4.41235e-13
4.47462e-13
4.42725e-13
4.31362e-13
4.27881e-13
4.38362e-13
4.75251e-13
4.69158e-13
4.48784e-13
4.29258e-13
4.31548e-13
4.35693e-13
4.3558e-13
4.34858e-13
4.30863e-13
4.2797e-13
4.24765e-13
4.15014e-13
4.12268e-13
4.2326e-13
4.34375e-13
4.37694e-13
4.3734e-13
4.36876e-13
4.36774e-13
4.7084e-13
4.56152e-13
4.40721e-13
4.38806e-13
4.38288e-13
4.29131e-13
4.25725e-13
4.29849e-13
4.25489e-13
4.18867e-13
4.19281e-13
4.23908e-13
4.33116e-13
4.3874e-13
4.31149e-13
4.27127e-13
4.30267e-13
4.27823e-13
4.29466e-13
4.57981e-13
4.51521e-13
4.39655e-13
4.27193e-13
4.25732e-13
4.21549e-13
4.23165e-13
4.3249e-13
4.32854e-13
4.23876e-13
4.15864e-13
4.17996e-13
4.24396e-13
4.24122e-13
4.18881e-13
4.1953e-13
4.27422e-13
4.33354e-13
4.3869e-13
4.61179e-13
4.58136e-13
4.35896e-13
4.19131e-13
4.30734e-13
4.31217e-13
4.18161e-13
4.23791e-13
4.29669e-13
4.22755e-13
4.22272e-13
4.29059e-13
4.30368e-13
4.26273e-13
4.21674e-13
4.17962e-13
4.19967e-13
4.27128e-13
4.29541e-13
4.47488e-13
4.40149e-13
4.30246e-13
4.29501e-13
4.37772e-13
4.2596e-13
4.15474e-13
4.23283e-13
4.31162e-13
4.2445e-13
4.16802e-13
4.2712e-13
4.33381e-13
4.26812e-13
4.11944e-13
4.05467e-13
4.16249e-13
4.25695e-13
4.36588e-13
4.50994e-13
4.5359e-13
4.44541e-13
4.20584e-13
4.23187e-13
4.3692e-13
4.27814e-13
4.20424e-13
4.25393e-13
4.28386e-13
4.33747e-13
4.36467e-13
4.26856e-13
4.14904e-13
4.14684e-13
4.19909e-13
4.19902e-13
4.26225e-13
4.34724e-13
4.52753e-13
4.45917e-13
4.39127e-13
4.31634e-13
4.36676e-13
4.37352e-13
4.22715e-13
4.14295e-13
4.18244e-13
4.22365e-13
4.32925e-13
4.37069e-13
4.30458e-13
4.28194e-13
4.16162e-13
4.03466e-13
4.05888e-13
4.16238e-13
4.30936e-13
4.5126e-13
4.55485e-13
4.57963e-13
4.4204e-13
4.36101e-13
4.35616e-13
4.31521e-13
4.28473e-13
4.18145e-13
4.23497e-13
4.4088e-13
4.38171e-13
4.24405e-13
4.14628e-13
4.10212e-13
4.18251e-13
4.25629e-13
4.29568e-13
4.43196e-13
4.61342e-13
4.5215e-13
4.49387e-13
4.34209e-13
4.22832e-13
4.35088e-13
4.37509e-13
4.16326e-13
4.09966e-13
4.16996e-13
4.31854e-13
4.34487e-13
4.26049e-13
4.22553e-13
4.17046e-13
4.1001e-13
4.05903e-13
4.0956e-13
4.24222e-13
4.66037e-13
4.62095e-13
4.59656e-13
4.52321e-13
4.48437e-13
4.32008e-13
4.19352e-13
4.30074e-13
4.31224e-13
4.24131e-13
4.29132e-13
4.26871e-13
4.18005e-13
4.11772e-13
4.09295e-13
4.17984e-13
4.27076e-13
4.38456e-13
4.55763e-13
4.64414e-13
4.52782e-13
4.46016e-13
4.38393e-13
4.23679e-13
4.18743e-13
4.33967e-13
4.33205e-13
4.17958e-13
4.10696e-13
4.12897e-13
4.15653e-13
4.17253e-13
4.1338e-13
4.11692e-13
4.14854e-13
4.13752e-13
4.14938e-13
4.29416e-13
4.74629e-13
4.60981e-13
4.53e-13
4.45556e-13
4.4084e-13
4.34544e-13
4.24023e-13
4.26395e-13
4.39231e-13
4.29418e-13
4.10705e-13
4.10056e-13
4.16262e-13
4.12137e-13
4.12214e-13
4.2346e-13
4.36703e-13
4.49156e-13
4.54602e-13
4.62985e-13
4.50982e-13
4.41457e-13
4.43603e-13
4.38425e-13
4.16666e-13
4.18161e-13
4.37998e-13
4.36764e-13
4.12611e-13
3.98702e-13
4.02743e-13
4.13356e-13
4.17194e-13
4.12472e-13
4.12221e-13
4.20895e-13
4.31999e-13
4.44198e-13
4.69875e-13
4.56506e-13
4.4883e-13
4.42267e-13
4.39221e-13
4.41806e-13
4.41751e-13
4.31979e-13
4.22477e-13
4.22815e-13
4.15531e-13
4.0641e-13
4.14027e-13
4.20218e-13
4.22949e-13
4.31606e-13
4.42802e-13
4.45536e-13
4.44285e-13
4.60712e-13
4.47852e-13
4.35415e-13
4.34748e-13
4.45166e-13
4.35984e-13
4.19456e-13
4.22267e-13
4.34845e-13
4.24632e-13
4.05343e-13
3.99329e-13
4.06181e-13
4.20272e-13
4.21298e-13
4.19863e-13
4.32107e-13
4.44026e-13
4.46041e-13
4.60159e-13
4.47661e-13
4.4071e-13
4.39033e-13
4.43653e-13
4.49284e-13
4.48797e-13
4.3482e-13
4.17949e-13
4.15013e-13
4.21548e-13
4.21157e-13
4.18283e-13
4.27729e-13
4.33658e-13
4.3408e-13
4.37423e-13
4.35292e-13
4.38629e-13
4.5917e-13
4.45851e-13
4.33266e-13
4.35482e-13
4.47835e-13
4.41957e-13
4.30054e-13
4.14885e-13
4.09443e-13
4.21323e-13
4.20319e-13
4.02667e-13
3.99684e-13
4.15843e-13
4.29157e-13
4.32945e-13
4.38055e-13
4.39065e-13
4.36315e-13
4.59688e-13
4.45272e-13
4.37176e-13
4.39524e-13
4.48233e-13
4.50093e-13
4.41371e-13
4.2581e-13
4.1971e-13
4.1692e-13
4.16122e-13
4.2688e-13
4.30222e-13
4.28717e-13
4.29155e-13
4.28501e-13
4.31245e-13
4.31474e-13
4.35511e-13
4.57303e-13
4.46297e-13
4.38955e-13
4.44723e-13
4.4307e-13
4.34459e-13
4.34021e-13
4.22622e-13
4.03566e-13
4.0219e-13
4.18339e-13
4.1542e-13
4.05683e-13
4.12476e-13
4.24131e-13
4.31313e-13
4.33107e-13
4.29306e-13
4.32906e-13
4.69854e-13
4.5662e-13
4.51224e-13
4.51756e-13
4.47151e-13
4.38341e-13
4.31032e-13
4.22642e-13
4.16525e-13
4.17815e-13
4.16956e-13
4.1715e-13
4.32819e-13
4.32725e-13
4.22076e-13
4.25241e-13
4.32618e-13
4.37875e-13
4.39218e-13
4.63842e-13
4.53414e-13
4.5152e-13
4.47648e-13
4.37908e-13
4.3313e-13
4.26666e-13
4.226e-13
4.15722e-13
3.99856e-13
4.06116e-13
4.20008e-13
4.20829e-13
4.22721e-13
4.21452e-13
4.24131e-13
4.3137e-13
4.30752e-13
4.35769e-13
4.80608e-13
4.75569e-13
4.76778e-13
4.6537e-13
4.42402e-13
4.26201e-13
4.21186e-13
4.22141e-13
4.19804e-13
4.16539e-13
4.21553e-13
4.20229e-13
4.30235e-13
4.40639e-13
4.32391e-13
4.29566e-13
4.35901e-13
4.462e-13
4.47229e-13
4.76717e-13
4.6938e-13
4.67509e-13
4.53644e-13
4.38275e-13
4.27442e-13
4.16426e-13
4.14774e-13
4.19266e-13
4.08793e-13
4.01815e-13
4.09455e-13
4.18904e-13
4.34747e-13
4.3118e-13
4.21309e-13
4.33224e-13
4.39617e-13
4.42347e-13
4.99915e-13
4.99545e-13
4.90685e-13
4.65071e-13
4.37862e-13
4.21531e-13
4.16232e-13
4.1953e-13
4.23746e-13
4.23186e-13
4.31004e-13
4.35079e-13
4.33437e-13
4.39052e-13
4.41916e-13
4.4336e-13
4.45777e-13
4.49178e-13
4.5093e-13
4.91333e-13
4.86906e-13
4.77493e-13
4.63859e-13
4.38787e-13
4.19151e-13
4.14564e-13
4.14975e-13
4.161e-13
4.15553e-13
4.14337e-13
4.0947e-13
4.12772e-13
4.34978e-13
4.44016e-13
4.299e-13
4.33314e-13
4.45997e-13
4.52289e-13
5.23843e-13
5.10002e-13
4.8071e-13
4.64647e-13
4.5424e-13
4.318e-13
4.18703e-13
4.2043e-13
4.2803e-13
4.35577e-13
4.41682e-13
4.4602e-13
4.46838e-13
4.37428e-13
4.33298e-13
4.47411e-13
4.59143e-13
4.61066e-13
4.59016e-13
5.11896e-13
4.93233e-13
4.68672e-13
4.59455e-13
4.53696e-13
4.32797e-13
4.18437e-13
4.19579e-13
4.1665e-13
4.2131e-13
4.30587e-13
4.26904e-13
4.26774e-13
4.36458e-13
4.4788e-13
4.46403e-13
4.3929e-13
4.46173e-13
4.58435e-13
5.26159e-13
5.00706e-13
4.70299e-13
4.67061e-13
4.75733e-13
4.6017e-13
4.37044e-13
4.26459e-13
4.35812e-13
4.48849e-13
4.51449e-13
4.50266e-13
4.58294e-13
4.57997e-13
4.45456e-13
4.44178e-13
4.60709e-13
4.71826e-13
4.61791e-13
5.12879e-13
4.8836e-13
4.63425e-13
4.53256e-13
4.63975e-13
4.5859e-13
4.31945e-13
4.25036e-13
4.24168e-13
4.27114e-13
4.39227e-13
4.40487e-13
4.44558e-13
4.51671e-13
4.52172e-13
4.5558e-13
4.56455e-13
4.49915e-13
4.55735e-13
5.04893e-13
4.87229e-13
4.74e-13
4.71925e-13
4.75235e-13
4.73596e-13
4.5601e-13
4.37204e-13
4.43056e-13
4.5759e-13
4.57666e-13
4.51456e-13
4.58968e-13
4.71436e-13
4.69795e-13
4.60251e-13
4.62909e-13
4.80056e-13
4.70059e-13
4.94434e-13
4.85692e-13
4.71246e-13
4.66561e-13
4.66255e-13
4.68637e-13
4.56713e-13
4.40666e-13
4.34845e-13
4.38706e-13
4.47842e-13
4.47221e-13
4.51057e-13
4.65448e-13
4.61473e-13
4.57076e-13
4.70764e-13
4.69131e-13
4.64663e-13
4.99682e-13
5.01226e-13
4.93197e-13
4.83425e-13
4.78013e-13
4.73891e-13
4.65432e-13
4.5166e-13
4.53132e-13
4.64938e-13
4.6478e-13
4.64468e-13
4.68028e-13
4.71549e-13
4.77075e-13
4.80642e-13
4.79597e-13
4.75598e-13
4.73481e-13
4.79967e-13
4.8155e-13
4.77937e-13
4.76141e-13
4.68327e-13
4.63766e-13
4.6223e-13
4.5244e-13
4.49082e-13
4.56097e-13
4.62879e-13
4.60563e-13
4.5963e-13
4.74827e-13
4.74759e-13
4.63329e-13
4.75947e-13
4.89982e-13
4.89501e-13
2.04105e-12
2.71689e-13
2.5322e-13
1.90488e-12
1.7644e-12
1.64603e-12
1.49861e-12
1.38448e-12
1.28745e-12
1.14185e-12
1.04365e-12
9.87576e-13
8.73869e-13
7.74122e-13
7.14893e-13
6.3531e-13
5.46181e-13
4.83601e-13
4.38388e-13
2.82299e-13
3.00213e-13
2.91951e-13
2.76974e-13
2.56459e-13
1.92419e-12
1.74303e-12
1.63921e-12
1.48293e-12
1.30531e-12
1.22281e-12
1.10105e-12
9.81482e-13
9.0401e-13
8.01212e-13
6.98136e-13
6.3478e-13
5.72448e-13
4.94201e-13
2.16094e-12
2.84377e-13
2.66826e-13
2.51975e-13
2.358e-13
1.80293e-12
1.6633e-12
1.51784e-12
1.38682e-12
1.2387e-12
1.13797e-12
1.05246e-12
9.25448e-13
8.53666e-13
7.6782e-13
6.57343e-13
5.81021e-13
5.28333e-13
4.7106e-13
2.54198e-12
3.21329e-13
3.13482e-13
3.00281e-13
2.78961e-13
2.5914e-13
2.36216e-13
1.78006e-12
1.61114e-12
1.4274e-12
1.30544e-12
1.15635e-12
1.05538e-12
9.77724e-13
8.38719e-13
7.39198e-13
6.8e-13
6.07325e-13
5.23228e-13
2.29096e-12
2.99673e-13
2.9218e-13
2.8139e-13
2.62291e-13
1.95376e-12
1.79777e-12
1.63332e-12
1.49308e-12
1.34265e-12
1.20613e-12
1.09297e-12
9.81118e-13
9.40618e-13
8.27117e-13
7.06678e-13
6.49274e-13
5.87312e-13
5.14053e-13
2.68804e-12
3.37343e-13
3.33812e-13
3.23663e-13
3.04099e-13
2.84132e-13
2.56857e-13
1.91098e-12
1.71199e-12
1.54802e-12
1.39368e-12
1.24277e-12
1.15473e-12
1.04582e-12
8.97777e-13
8.12019e-13
7.39613e-13
6.43629e-13
5.52545e-13
2.50389e-12
3.26595e-13
3.19687e-13
3.01336e-13
2.78543e-13
2.57487e-13
2.36521e-13
1.76335e-12
1.62119e-12
1.45009e-12
1.28454e-12
1.14672e-12
1.04381e-12
9.79608e-13
8.4698e-13
7.54544e-13
7.05637e-13
6.22949e-13
5.38408e-13
3.32153e-13
3.65932e-13
3.63849e-13
3.54721e-13
3.307e-13
3.05042e-13
2.77058e-13
2.04891e-12
1.83542e-12
1.68021e-12
1.48659e-12
1.33905e-12
1.22825e-12
1.06908e-12
9.42425e-13
8.76806e-13
7.86701e-13
6.79249e-13
5.80189e-13
2.69241e-12
3.53008e-13
3.4071e-13
3.17161e-13
2.94126e-13
2.78373e-13
2.52295e-13
1.8757e-12
1.70076e-12
1.52008e-12
1.38273e-12
1.22905e-12
1.11464e-12
1.0095e-12
8.89864e-13
8.25321e-13
7.50828e-13
6.46432e-13
5.55013e-13
3.53091e-13
3.98951e-13
3.94694e-13
3.75818e-13
3.46596e-13
3.22567e-13
2.96302e-13
2.69926e-13
2.41635e-13
1.7708e-12
1.55942e-12
1.42289e-12
1.27345e-12
1.0927e-12
9.99554e-13
9.28806e-13
8.14968e-13
6.95128e-13
5.97157e-13
2.83644e-12
3.59905e-13
3.68077e-13
3.33046e-13
3.14496e-13
2.90107e-13
2.65445e-13
2.01253e-12
1.80945e-12
1.59962e-12
1.45817e-12
1.31279e-12
1.16984e-12
1.03762e-12
9.34536e-13
8.6851e-13
7.70402e-13
6.64695e-13
5.72648e-13
3.76569e-13
4.19676e-13
4.15178e-13
3.94794e-13
3.66613e-13
3.44863e-13
3.14141e-13
2.86803e-13
2.57147e-13
1.89176e-12
1.66573e-12
1.50339e-12
1.31113e-12
1.13915e-12
1.06535e-12
9.55958e-13
8.28221e-13
7.10427e-13
6.212e-13
3.08125e-12
3.92547e-13
3.76601e-13
3.62751e-13
3.48132e-13
3.1917e-13
2.93528e-13
2.67922e-13
2.39951e-13
1.71205e-12
1.53958e-12
1.37198e-12
1.21227e-12
1.07628e-12
9.75425e-13
8.86277e-13
7.73479e-13
6.72269e-13
5.87507e-13
4.00865e-13
4.54796e-13
4.52567e-13
4.2833e-13
3.96624e-13
3.73247e-13
3.36151e-13
3.02718e-13
2.71094e-13
2.00725e-12
1.75256e-12
1.55063e-12
1.34091e-12
1.2002e-12
1.1255e-12
9.70908e-13
8.30064e-13
7.23352e-13
6.47162e-13
3.68543e-13
4.26309e-13
4.1405e-13
3.82373e-13
3.78649e-13
3.35328e-13
3.02542e-13
2.77781e-13
2.50983e-13
1.81138e-12
1.62281e-12
1.41049e-12
1.24952e-12
1.11671e-12
1.02067e-12
9.02515e-13
7.73289e-13
6.78179e-13
6.11763e-13
4.29665e-13
4.81104e-13
4.86331e-13
4.58425e-13
4.27771e-13
3.95604e-13
3.54246e-13
3.14939e-13
2.82021e-13
2.09686e-12
1.8218e-12
1.60317e-12
1.39288e-12
1.25138e-12
1.1488e-12
9.64504e-13
8.21125e-13
7.38191e-13
6.72789e-13
3.9317e-13
4.84099e-13
4.58532e-13
4.27892e-13
4.01034e-13
3.54073e-13
3.02819e-13
2.8362e-13
2.56904e-13
1.85428e-12
1.66118e-12
1.4718e-12
1.28131e-12
1.12727e-12
1.04815e-12
9.14715e-13
7.8331e-13
7.00667e-13
6.41985e-13
4.6463e-13
5.30405e-13
5.21606e-13
4.90092e-13
4.55666e-13
4.16078e-13
3.68032e-13
3.33163e-13
2.93806e-13
2.16705e-12
1.87445e-12
1.68079e-12
1.46601e-12
1.27597e-12
1.15238e-12
9.69864e-13
8.40881e-13
7.70883e-13
6.93791e-13
4.213e-13
5.01938e-13
4.73707e-13
4.32764e-13
4.14321e-13
3.78649e-13
3.28893e-13
3.1156e-13
2.68346e-13
1.90828e-12
1.68644e-12
1.56531e-12
1.32267e-12
1.14479e-12
1.07403e-12
9.14556e-13
7.82035e-13
7.12856e-13
6.48153e-13
4.9891e-13
5.72841e-13
5.7193e-13
5.2857e-13
4.82804e-13
4.4193e-13
3.98222e-13
3.59883e-13
3.11182e-13
2.80045e-13
2.38158e-13
1.71578e-12
1.51316e-12
1.30803e-12
1.16444e-12
9.91053e-13
8.81591e-13
7.9755e-13
6.98608e-13
4.70674e-13
5.40028e-13
5.12955e-13
4.96148e-13
4.33345e-13
4.0848e-13
3.58267e-13
3.1213e-13
2.81641e-13
2.00899e-12
1.72378e-12
1.6047e-12
1.35091e-12
1.15784e-12
1.0741e-12
9.18675e-13
7.97229e-13
7.21399e-13
6.38575e-13
5.35041e-13
6.15636e-13
6.11561e-13
5.69349e-13
5.08314e-13
4.6912e-13
4.24287e-13
3.65367e-13
3.25845e-13
2.93327e-13
2.44049e-13
1.73487e-12
1.52962e-12
1.34681e-12
1.1762e-12
1.01215e-12
9.12722e-13
8.07702e-13
6.97564e-13
4.99052e-13
5.31313e-13
5.33222e-13
5.10138e-13
4.56779e-13
4.16175e-13
3.60751e-13
3.1532e-13
2.94531e-13
2.05435e-12
1.75359e-12
1.58497e-12
1.39351e-12
1.20657e-12
1.08114e-12
9.34377e-13
8.28234e-13
7.38385e-13
6.37755e-13
5.73381e-13
6.41471e-13
6.39646e-13
6.15953e-13
5.57211e-13
5.04062e-13
4.38245e-13
3.83265e-13
3.39954e-13
2.98169e-13
2.54734e-13
1.78298e-12
1.55161e-12
1.38765e-12
1.19333e-12
1.02326e-12
9.23943e-13
8.04332e-13
6.84943e-13
5.58784e-13
6.30503e-13
6.04277e-13
5.58733e-13
4.82396e-13
4.65949e-13
3.85055e-13
3.36735e-13
3.07691e-13
2.03923e-12
1.80688e-12
1.59591e-12
1.40669e-12
1.23264e-12
1.09083e-12
9.23948e-13
8.17648e-13
7.4167e-13
6.40252e-13
6.08389e-13
7.20138e-13
6.97527e-13
6.38627e-13
5.84803e-13
5.30018e-13
4.56473e-13
4.06969e-13
3.46909e-13
3.02735e-13
2.59672e-13
1.79415e-12
1.5372e-12
1.37042e-12
1.20367e-12
1.01827e-12
9.09075e-13
8.03757e-13
6.87176e-13
6.31939e-13
6.30009e-13
5.96432e-13
5.87844e-13
5.23808e-13
4.77697e-13
3.83785e-13
3.52503e-13
2.92854e-13
2.09539e-12
1.87604e-12
1.6509e-12
1.39757e-12
1.20321e-12
1.08719e-12
9.18203e-13
8.01009e-13
7.32688e-13
6.32349e-13
6.48451e-13
7.54549e-13
7.40488e-13
7.02573e-13
6.20923e-13
5.52227e-13
4.80209e-13
4.18549e-13
3.48693e-13
3.08464e-13
2.61137e-13
1.82096e-12
1.55545e-12
1.32798e-12
1.19497e-12
1.0183e-12
8.89004e-13
7.96996e-13
6.90129e-13
5.5712e-13
6.86437e-13
6.69961e-13
6.09402e-13
5.10933e-13
4.68763e-13
3.96609e-13
3.52712e-13
2.95085e-13
2.1562e-12
1.86947e-12
1.64209e-12
1.39797e-12
1.18305e-12
1.07675e-12
9.43044e-13
8.07458e-13
7.2391e-13
6.25596e-13
6.75453e-13
7.83589e-13
7.72733e-13
7.22538e-13
6.40596e-13
5.66245e-13
4.83408e-13
4.16654e-13
3.58698e-13
3.19354e-13
2.6651e-13
1.8439e-12
1.59078e-12
1.32989e-12
1.18158e-12
1.03625e-12
8.82614e-13
7.69248e-13
6.68789e-13
5.94762e-13
7.46932e-13
6.70545e-13
6.40995e-13
5.70464e-13
4.59515e-13
3.79428e-13
3.55342e-13
3.17424e-13
2.15811e-12
1.85634e-12
1.6129e-12
1.39981e-12
1.19173e-12
1.05559e-12
9.60707e-13
8.21838e-13
7.14785e-13
6.23801e-13
7.14273e-13
8.19165e-13
7.91247e-13
7.42144e-13
6.56534e-13
5.72825e-13
4.86501e-13
4.19412e-13
3.72296e-13
3.19533e-13
2.64095e-13
1.83834e-12
1.57048e-12
1.35198e-12
1.18445e-12
1.04814e-12
8.91364e-13
7.54553e-13
6.6114e-13
6.23479e-13
7.12963e-13
6.46269e-13
6.07358e-13
5.40634e-13
4.66555e-13
4.12316e-13
3.57809e-13
3.25557e-13
2.09432e-12
1.85008e-12
1.59454e-12
1.3827e-12
1.18899e-12
1.03234e-12
9.26905e-13
8.05836e-13
6.79094e-13
5.91984e-13
7.0918e-13
8.24201e-13
8.0513e-13
7.40151e-13
6.40931e-13
5.65345e-13
4.95475e-13
4.36368e-13
3.67045e-13
3.10449e-13
2.6294e-13
1.818e-12
1.53379e-12
1.34196e-12
1.17942e-12
1.0197e-12
8.89915e-13
7.43396e-13
6.32321e-13
6.05348e-13
7.65888e-13
6.77967e-13
6.19901e-13
4.82676e-13
4.74318e-13
4.19127e-13
3.51043e-13
3.06129e-13
2.13601e-12
1.78633e-12
1.53521e-12
1.32403e-12
1.1355e-12
9.95979e-13
8.55312e-13
7.48053e-13
6.24457e-13
5.21466e-13
7.21141e-13
7.88743e-13
7.78291e-13
6.94041e-13
6.19552e-13
5.51396e-13
4.88866e-13
4.27662e-13
3.49689e-13
3.04717e-13
2.57339e-13
1.75072e-12
1.47415e-12
1.27507e-12
1.12904e-12
9.55723e-13
8.3021e-13
6.93805e-13
5.62125e-13
5.65877e-13
7.05832e-13
6.47962e-13
6.43327e-13
5.21749e-13
3.86647e-12
3.15127e-12
3.2667e-13
2.98904e-13
2.12126e-12
1.69666e-12
1.48658e-12
1.26238e-12
1.07855e-12
9.33764e-13
7.9168e-13
6.68695e-13
5.78783e-13
4.58394e-13
7.10167e-13
7.58932e-13
7.47789e-13
6.78559e-13
6.1178e-13
5.30394e-13
4.61404e-13
4.0606e-13
3.40637e-13
2.39198e-12
1.92397e-12
1.70496e-12
1.40937e-12
1.21846e-12
1.0514e-12
8.94793e-13
7.43058e-13
6.37307e-13
5.05226e-13
1.95635e-12
2.61597e-13
2.45139e-13
1.80726e-12
1.68505e-12
1.57521e-12
1.42067e-12
1.33028e-12
1.24188e-12
1.09868e-12
1.00119e-12
9.56294e-13
8.56016e-13
7.56775e-13
7.08469e-13
6.44652e-13
5.63241e-13
4.85746e-13
4.44021e-13
1.94972e-12
2.05823e-12
1.93356e-12
1.77824e-12
1.68269e-12
1.56871e-12
1.41688e-12
1.35026e-12
1.24291e-12
1.10101e-12
1.02965e-12
9.79648e-13
8.69278e-13
7.87875e-13
7.38815e-13
6.62549e-13
5.8014e-13
5.15263e-13
4.70022e-13
1.96951e-12
2.08303e-12
1.94425e-12
1.7892e-12
1.6757e-12
1.53723e-12
1.39511e-12
1.3372e-12
1.23381e-12
1.10885e-12
1.04815e-12
9.96676e-13
8.95865e-13
8.26946e-13
7.77786e-13
6.86901e-13
6.01464e-13
5.52784e-13
5.06948e-13
2.48232e-13
2.65709e-13
1.98139e-12
1.81492e-12
1.66981e-12
1.52135e-12
1.39397e-12
1.32754e-12
1.2428e-12
1.13423e-12
1.06887e-12
1.01251e-12
9.20813e-13
8.50098e-13
7.93127e-13
7.02203e-13
6.18774e-13
5.74793e-13
5.36246e-13
2.45623e-13
2.61467e-13
1.9833e-12
1.81365e-12
1.65135e-12
1.52344e-12
1.41338e-12
1.32509e-12
1.24758e-12
1.16257e-12
1.0946e-12
1.02824e-12
9.45444e-13
8.67788e-13
8.06291e-13
7.28701e-13
6.46483e-13
5.9406e-13
5.55072e-13
2.44582e-13
2.62331e-13
1.98583e-12
1.79321e-12
1.62553e-12
1.52006e-12
1.42694e-12
1.33195e-12
1.25671e-12
1.18996e-12
1.1121e-12
1.04136e-12
9.68562e-13
8.84757e-13
8.2217e-13
7.55649e-13
6.74259e-13
6.18737e-13
5.70782e-13
2.55461e-13
2.63513e-13
1.95824e-12
1.79153e-12
1.64516e-12
1.53227e-12
1.43968e-12
1.34913e-12
1.27134e-12
1.21117e-12
1.13559e-12
1.05997e-12
9.82852e-13
9.00843e-13
8.39216e-13
7.64454e-13
6.82551e-13
6.34675e-13
5.84309e-13
2.51627e-13
2.61647e-13
1.98394e-12
1.83786e-12
1.68392e-12
1.55268e-12
1.45645e-12
1.36974e-12
1.29431e-12
1.2324e-12
1.16067e-12
1.08314e-12
1.0133e-12
9.33273e-13
8.59269e-13
7.77309e-13
6.98217e-13
6.52491e-13
5.99045e-13
2.67772e-13
2.75554e-13
2.02918e-12
1.87705e-12
1.72471e-12
1.59092e-12
1.4928e-12
1.39941e-12
1.33583e-12
1.2669e-12
1.19219e-12
1.11233e-12
1.04669e-12
9.69007e-13
8.80126e-13
7.97691e-13
7.2137e-13
6.68747e-13
6.07406e-13
2.78272e-13
2.80816e-13
2.14083e-12
1.94313e-12
1.78804e-12
1.65811e-12
1.5539e-12
1.45356e-12
1.38764e-12
1.30164e-12
1.22984e-12
1.13901e-12
1.05837e-12
9.79664e-13
8.85875e-13
8.05317e-13
7.28825e-13
6.6716e-13
6.05815e-13
2.8463e-13
2.93252e-13
2.77701e-13
2.49522e-13
1.88634e-12
1.73686e-12
1.61701e-12
1.50834e-12
1.42163e-12
1.32663e-12
1.26345e-12
1.16952e-12
1.07325e-12
9.90492e-13
9.00726e-13
8.17293e-13
7.28185e-13
6.5063e-13
5.94478e-13
3.15827e-13
3.28753e-13
2.91063e-13
2.67832e-13
2.01952e-12
1.83383e-12
1.70483e-12
1.58049e-12
1.46973e-12
1.36867e-12
1.28896e-12
1.20898e-12
1.10823e-12
1.00247e-12
9.15815e-13
8.37674e-13
7.39384e-13
6.42402e-13
5.7776e-13
3.28544e-13
3.4968e-13
3.12039e-13
2.42313e-12
2.15839e-12
1.97056e-12
1.80406e-12
1.64446e-12
1.53343e-12
1.42827e-12
1.31139e-12
1.21989e-12
1.11523e-12
9.94913e-13
8.97549e-13
8.18709e-13
7.35208e-13
6.44059e-13
5.69712e-13
3.31322e-13
3.64361e-13
3.4614e-13
3.05373e-13
2.70011e-13
2.07652e-12
1.88807e-12
1.71257e-12
1.58779e-12
1.46053e-12
1.32502e-12
1.20196e-12
1.08571e-12
9.90412e-13
8.85456e-13
7.88017e-13
7.18319e-13
6.40543e-13
5.59585e-13
3.04e-12
3.70994e-13
3.4718e-13
3.20333e-13
2.90696e-13
2.11366e-12
1.8857e-12
1.72623e-12
1.59912e-12
1.43809e-12
1.30093e-12
1.18141e-12
1.06492e-12
9.73027e-13
8.74776e-13
7.75524e-13
7.02041e-13
6.28895e-13
5.42726e-13
3.4672e-13
3.78085e-13
3.65496e-13
3.13638e-13
2.85576e-13
2.08534e-12
1.85457e-12
1.67911e-12
1.54157e-12
1.39838e-12
1.2655e-12
1.1528e-12
1.04536e-12
9.36529e-13
8.45087e-13
7.5845e-13
6.77096e-13
6.11039e-13
5.36352e-13
3.42085e-13
3.64741e-13
3.52051e-13
3.07954e-13
2.70104e-13
2.00164e-12
1.81495e-12
1.63633e-12
1.47218e-12
1.3556e-12
1.2408e-12
1.1148e-12
1.01356e-12
9.17018e-13
8.20154e-13
7.43692e-13
6.65321e-13
5.92631e-13