/*--------------------------------*- C++ -*----------------------------------*\
| =========                 |                                                 |
| \\      /  F ield         | OpenFOAM: The Open Source CFD Toolbox           |
|  \\    /   O peration     | Version:  2.2.2                                 |
|   \\  /    A nd           | Web:      www.OpenFOAM.org                      |
|    \\/     M anipulation  |                                                 |
\*---------------------------------------------------------------------------*/
FoamFile
{
    version     2.0;
    format      ascii;
    class       volScalarField;
    object      a;
}
// * * * * * * * * * * * * * * * * * * * * * * * * * * * * * * * * * * * * * //

dimensions      [1 -3 0 0 0 0 0];

//internalField	uniform 0.0012;
internalField   nonuniform List<scalar>
4978
(
0.00120377668423672
0.00120486950324491
0.00119552384179552
0.00120496051027367
0.00120158831095470
0.00119517048485999
0.00119734197862640
0.00120056257823046
0.00120549008202521
0.00120557866242239
0.00119589135698013
0.00120564711338113
0.00120548600337892
0.00119982450778467
0.00120360336562667
0.00119570263606353
0.00119906113539152
0.00120498882630227
0.00120350648795471
0.00120551390911671
0.00120186888838988
0.00119442854014289
0.00120418955167043
0.00120520791897309
0.00120214482185829
0.00120309288156694
0.00120291758961750
0.00119870672423441
0.00120186573468213
0.00119605424025374
0.00120247255305624
0.00119438199415653
0.00119732307581953
0.00119455405668757
0.00119516558137483
0.00120388149393993
0.00120233794347571
0.00119780519376073
0.00120540266458606
0.00119441335296603
0.00119926493231588
0.00119857870148512
0.00120318620145779
0.00120354239881364
0.00119624247125465
0.00119987717274946
0.00119934703440853
0.00120175575612134
0.00120251237797030
0.00120305624018379
0.00119731230092398
0.00120215643212224
0.00120186117604769
0.00119595134082234
0.00119542797217870
0.00119998036862379
0.00120551692750219
0.00119808462871999
0.00120102321301176
0.00119668574327389
0.00120301520471167
0.00119706114138551
0.00120007148461998
0.00120238892067188
0.00120469083903043
0.00120551149710247
0.00120056658635957
0.00119566349331394
0.00119579152806671
0.00119709009904948
0.00120408860707180
0.00119705138614766
0.00120377141791283
0.00119692229962470
0.00120515116347825
0.00119819980519182
0.00119635914300517
0.00119701300629571
0.00120139253611376
0.00119967946618683
0.00119821991408476
0.00120396994353476
0.00120102316909383
0.00120059668329949
0.00120500632396596
0.00119743006822584
0.00120308640274933
0.00120304474913134
0.00119856535016370
0.00120081385968870
0.00119491025147476
0.00119464740142400
0.00120036957063611
0.00120335000676122
0.00120520812821075
0.00119555887450168
0.00120082588393047
0.00119963268769270
0.00119414282483401
0.00119804547173279
0.00119594618769832
0.00120353141448821
0.00119773458050454
0.00120034239762607
0.00119598778475400
0.00120122378329682
0.00119715565541448
0.00120184894918172
0.00120227057403768
0.00120297781911388
0.00119940649918203
0.00119500585653596
0.00119674772362460
0.00120496004833802
0.00119582853622763
0.00120390980372987
0.00120046010922312
0.00120595361659952
0.00119493810634504
0.00119931213923731
0.00119527983324217
0.00120554277697026
0.00119405561068961
0.00120329892557654
0.00120380763864784
0.00120442433646436
0.00119501323014613
0.00119879739178919
0.00119711844483421
0.00120360082176269
0.00119917696592956
0.00120492777113315
0.00119618216433963
0.00119716563499826
0.00119574646776462
0.00119563282270450
0.00120443150649168
0.00120095645504839
0.00120059832242204
0.00119573945757868
0.00120423637341266
0.00120146466157782
0.00119821142857071
0.00120015899447840
0.00119882169640502
0.00119491160030029
0.00119687899384264
0.00119547982721802
0.00119620689345939
0.00119687943030798
0.00119900720482901
0.00119459585316391
0.00120483259331898
0.00120533744627666
0.00119989036910962
0.00119987103166080
0.00119805263291786
0.00120480064615701
0.00119843096137344
0.00119533443306353
0.00120336302481985
0.00119867686604354
0.00119690029543097
0.00119884694574706
0.00119515745430202
0.00119558367951128
0.00120530460708931
0.00120547361448276
0.00120090250314094
0.00119471735451537
0.00119681735896047
0.00119823790285466
0.00120385432848238
0.00119418484125182
0.00119451628561989
0.00119602788035355
0.00120178938569948
0.00120278066862790
0.00120177295155764
0.00119941108447717
0.00120056410670744
0.00119755584966729
0.00120293631368489
0.00119626746018039
0.00120224130520038
0.00119620213386885
0.00119842181515788
0.00120150742272876
0.00120336272922182
0.00119497350922639
0.00120515263165162
0.00120330855214330
0.00119984149958884
0.00119923030306297
0.00119936140499316
0.00119767619366420
0.00120010210386457
0.00120012925877007
0.00120381153249987
0.00120353797700260
0.00120173181756232
0.00119854331259192
0.00120373896549939
0.00120039390706559
0.00119820872524292
0.00120526801874400
0.00120451131373792
0.00120060187611478
0.00120146970103201
0.00120104453645438
0.00119649290751280
0.00119761495596335
0.00119965108018221
0.00119676585792254
0.00120413170551234
0.00119633717147480
0.00119671106137167
0.00119604849656577
0.00119673197157380
0.00119922838420925
0.00119773322743981
0.00120508055570524
0.00119916248869596
0.00119621779584149
0.00120485857162416
0.00120575698054027
0.00119926643967751
0.00119533343068129
0.00119709677635094
0.00119890463815335
0.00120113875288810
0.00119714654097337
0.00120123411707259
0.00120253458936520
0.00119666096080821
0.00119540901181027
0.00119756011047862
0.00119782533962311
0.00119909000111657
0.00120009429941593
0.00119502618956508
0.00119714978681638
0.00120361217547324
0.00119435064333075
0.00120514624967374
0.00120276397035427
0.00119986330768564
0.00120094230073228
0.00119684740295726
0.00119950618593816
0.00120555706247144
0.00120056166862487
0.00120025362996965
0.00119677913264050
0.00119986677292704
0.00120148872105808
0.00120214962649039
0.00119874618258802
0.00119840923978253
0.00120585578403794
0.00119445286639487
0.00120462201609843
0.00120495944193167
0.00120355420648302
0.00119518454734387
0.00119714245420645
0.00119802428207955
0.00120215673541653
0.00119563863764826
0.00120265472998298
0.00119528114233929
0.00120184508818402
0.00119993008723967
0.00120334862067878
0.00120258044494081
0.00120484464672668
0.00120469107005197
0.00119800995663285
0.00120238494998802
0.00119637371792023
0.00119436649135566
0.00120292889112441
0.00120000026922708
0.00119975906569375
0.00120485666685681
0.00120131839978107
0.00120141199667506
0.00120431330766775
0.00120366587309436
0.00120092065818738
0.00119619506963298
0.00119687918412682
0.00120463814319691
0.00119434408982957
0.00119987881666215
0.00119601512574819
0.00120574416779569
0.00120255233366015
0.00120000565948986
0.00119965306049450
0.00119471542641096
0.00120218366284979
0.00119450917365001
0.00119485734557521
0.00120025979810957
0.00119516076030937
0.00120381778264632
0.00120381056510495
0.00120266927510840
0.00119579838530974
0.00120191526303490
0.00120022313931013
0.00120567569465717
0.00120178789791255
0.00120360396690423
0.00119944557250472
0.00119918869804540
0.00120390376554482
0.00119500163777831
0.00119559805209129
0.00119608066335743
0.00119869125362788
0.00120397655691407
0.00120364037269923
0.00119472565415004
0.00119879109324736
0.00120032250996610
0.00119900159361517
0.00120188231869168
0.00120153568031028
0.00119750380895954
0.00119917981404298
0.00119418584550763
0.00120580876469255
0.00119600602091898
0.00119527459613914
0.00119846891688067
0.00119637742083052
0.00119987625165619
0.00119807392096069
0.00120541956557733
0.00120504398447804
0.00119463212397217
0.00120285429714620
0.00119722943311678
0.00119907402738011
0.00120057445081458
0.00120531284381132
0.00119901292925180
0.00120579662959764
0.00119761745938454
0.00120241318507081
0.00120199606621901
0.00120046951758051
0.00120237726624216
0.00120199833496083
0.00119613758945280
0.00119553617279664
0.00120598896473714
0.00119605345279628
0.00119439120984637
0.00120073439751252
0.00120458239800542
0.00120203010365441
0.00119628519920616
0.00119842699855277
0.00119952871124712
0.00120577965541165
0.00119587685942672
0.00120426627367015
0.00120173717444244
0.00119851526652335
0.00119629108434284
0.00119913903591575
0.00119978426473238
0.00119544733935957
0.00120107408981634
0.00119671425215703
0.00119861542949243
0.00120099583659297
0.00119702167346967
0.00119748528797132
0.00120140509061272
0.00119718337091772
0.00120389251520027
0.00120579196079666
0.00120276298550721
0.00119812652404938
0.00120100883199934
0.00119529322818292
0.00120487569780780
0.00120455584469378
0.00120381312671245
0.00119712873598867
0.00120113227500797
0.00119427015111288
0.00119910311184257
0.00119775262664185
0.00119593781693174
0.00119614519424103
0.00119907462826920
0.00119513075206665
0.00120118228402508
0.00119965109107630
0.00120235139175962
0.00120239865419914
0.00120166236909926
0.00119440324603280
0.00119482567318942
0.00119783519682217
0.00120037037136833
0.00120185334849308
0.00119889143036449
0.00120383977467338
0.00120262030731847
0.00120562379196277
0.00120037600687879
0.00119790174818185
0.00119526755043995
0.00120133150390495
0.00120334562690189
0.00119908143502755
0.00119508987942945
0.00119719765788935
0.00119584388061110
0.00119737206363041
0.00119928102166802
0.00120032571290113
0.00119948909238825
0.00120450445918325
0.00120021662530033
0.00120532347149458
0.00120165250917687
0.00120549232727810
0.00119688848442576
0.00120211346764636
0.00119746877486009
0.00120206169798497
0.00120234168599462
0.00119481591322164
0.00119705748187916
0.00119668848036989
0.00120201399272416
0.00120413270587833
0.00119813354893561
0.00120336623583278
0.00120210398478896
0.00119408058377182
0.00120122604585098
0.00119864125433425
0.00120499189492958
0.00119401381268555
0.00119954938991091
0.00119909218847778
0.00119953099639235
0.00120324191674330
0.00119786966168624
0.00120341687153713
0.00119965628584453
0.00119442915279923
0.00119611049298820
0.00120266109640069
0.00119968183191558
0.00119583265440526
0.00119809349528459
0.00120128867056522
0.00119630094306554
0.00120286112207972
0.00119691419517982
0.00120500909210459
0.00119722873904023
0.00120318600019946
0.00119626394372150
0.00119744997807679
0.00119509336156424
0.00120091451256796
0.00120220035891954
0.00120055911737508
0.00119910874610245
0.00120173331337718
0.00120177141156207
0.00120214820104912
0.00120162944052617
0.00120534208935731
0.00119650721906911
0.00120251138043253
0.00119683476692393
0.00119543275497357
0.00120128764728823
0.00119940165236359
0.00119950470592379
0.00120194333702287
0.00120324342617764
0.00119820261616129
0.00120194411518031
0.00119899390307964
0.00120410314983230
0.00120399500182890
0.00119707729190675
0.00120136152884175
0.00120098698997433
0.00120048887204549
0.00120443929238830
0.00119717734831771
0.00119781688890577
0.00119543057449265
0.00120527795364414
0.00120174662249967
0.00119975355869939
0.00120167180353248
0.00120053659332632
0.00120176773776352
0.00120052663120800
0.00120265255944696
0.00120026994366933
0.00120592445548945
0.00119662411958880
0.00119526957927900
0.00119531636957428
0.00119476309645170
0.00119885495995029
0.00119938047494480
0.00119838979412206
0.00120316205569019
0.00120153475655537
0.00120326376462665
0.00120519424284335
0.00120567289024804
0.00119630434019313
0.00119566649043395
0.00120235519604500
0.00119512584032130
0.00120030485284631
0.00120036413062071
0.00120433367773672
0.00119981824000263
0.00119872147633458
0.00120205717367609
0.00120289509532145
0.00120024062960868
0.00119817255205533
0.00119579996704598
0.00120103310480678
0.00119714574381273
0.00119453344910734
0.00120305919920677
0.00119691342429385
0.00119930882775602
0.00120225355302144
0.00119831073852482
0.00120283608089161
0.00119873648970335
0.00120220099040362
0.00120244856916401
0.00119930766496060
0.00119423493148264
0.00119797029456257
0.00119909171396200
0.00119724324508118
0.00119636464557715
0.00120386065421954
0.00119915905691260
0.00120465325145108
0.00119869419594553
0.00120322937264866
0.00119876149820416
0.00120370216915065
0.00120306092518809
0.00119852874653802
0.00119659222699154
0.00120348488661560
0.00120539164694220
0.00119793078520890
0.00120205517244542
0.00119926373979104
0.00120400200714707
0.00120322625102916
0.00119600704254594
0.00120434376574442
0.00120587846584358
0.00120017308147807
0.00120461137227752
0.00120105631266370
0.00119585702818387
0.00119639835387429
0.00119888345804567
0.00120298446861859
0.00120390700578943
0.00120347955635933
0.00119782229094479
0.00120040876952845
0.00119507940814525
0.00119534046893032
0.00119563551058726
0.00120214382765760
0.00119994212422908
0.00119627652487221
0.00119994006989988
0.00119577129866372
0.00119465968976287
0.00120420855209147
0.00120072671432826
0.00120515530640108
0.00120236000640666
0.00120099349158211
0.00120378476653773
0.00120454816685517
0.00120586693939296
0.00119400626850428
0.00120438526309216
0.00120135079763381
0.00120587940246851
0.00120033216083206
0.00119975428062252
0.00120361617126626
0.00119673411522847
0.00119997713149436
0.00120481022986238
0.00120089593462956
0.00120414213822065
0.00120286368350394
0.00120103184442992
0.00119696081431183
0.00120199699460783
0.00119500179376323
0.00120151151742206
0.00120193133469537
0.00120275702226381
0.00120468902539590
0.00120578763867460
0.00120322834902403
0.00120097735785450
0.00120513975674777
0.00120096108438910
0.00119420379526005
0.00119545031485318
0.00120435252862440
0.00119981155813455
0.00120413826809492
0.00119651286100825
0.00120062749609847
0.00120155860062077
0.00119438389218915
0.00120137656102941
0.00119834893754728
0.00119459439094850
0.00119987483987013
0.00119631012475274
0.00119547700497055
0.00119646593005089
0.00119575817892738
0.00119626886609367
0.00119451182893093
0.00120162237500232
0.00119738240227057
0.00120046316013654
0.00120234195647333
0.00119998939216179
0.00120042961266901
0.00119934219798355
0.00119548718733118
0.00119988428752162
0.00120423597786409
0.00120448712887034
0.00119724353198751
0.00119650153630502
0.00120077975484886
0.00120168374190195
0.00119900434741971
0.00119647170618639
0.00120537519745552
0.00119498485448517
0.00119526851311898
0.00119570449346285
0.00119599752529052
0.00120145150372722
0.00120088451717809
0.00119462493468343
0.00120517441661530
0.00120274394018014
0.00120285409984557
0.00119476085400831
0.00120432528675646
0.00120521286142753
0.00120581277974689
0.00120430726580021
0.00120342670787118
0.00120016052902305
0.00119613122952607
0.00119878307396083
0.00119560717501186
0.00119437067458494
0.00120526970047283
0.00119761567277504
0.00119754640601370
0.00119799523538203
0.00119960481824435
0.00120177838087759
0.00119430273817792
0.00120410647934903
0.00120070839053986
0.00120424919939128
0.00119817455033193
0.00119935231977666
0.00119465087381329
0.00119612529040547
0.00120195369674353
0.00119796994794244
0.00120478183365401
0.00119541786238136
0.00120586101514542
0.00120047978518846
0.00120248300903187
0.00120599389944117
0.00119745419213778
0.00119897427046672
0.00119957807929950
0.00120316748494190
0.00120381844846689
0.00119520265848235
0.00119613740344664
0.00119831561896179
0.00119468045626882
0.00120026262808394
0.00119803018769612
0.00119610802835611
0.00119650736008792
0.00120486184270805
0.00120210469412803
0.00119962161839885
0.00120494558969088
0.00119524813889735
0.00120294655288442
0.00120283520946716
0.00120074233710338
0.00119621032917019
0.00120116653620405
0.00119759924388108
0.00119560947519394
0.00119655121840031
0.00120473930010529
0.00119485743375344
0.00119690983870724
0.00119464505270650
0.00119930066468477
0.00119415939840561
0.00120476629621168
0.00119635989829641
0.00119512044620106
0.00119768840279506
0.00119947269200212
0.00119522003272350
0.00120594467673186
0.00119798511400143
0.00119756816179065
0.00119474454265584
0.00119757892766265
0.00119455621517878
0.00120006513770949
0.00120313711064028
0.00120157283999056
0.00119507869980931
0.00119497034907756
0.00120332688643859
0.00120486161693068
0.00120040526342120
0.00119530985054451
0.00120390970629427
0.00119805717262563
0.00119752767663632
0.00120295576113244
0.00119412403942012
0.00119458136807104
0.00120201499345888
0.00120124161580597
0.00120031322958955
0.00120275651337868
0.00120248704182379
0.00120337652462159
0.00119745572370737
0.00120231038383664
0.00120068003801957
0.00119875824951098
0.00119473908800465
0.00120336210637789
0.00119805100636862
0.00120129439088716
0.00120289504859403
0.00119525775890368
0.00119553466055740
0.00120059448128418
0.00119982275290302
0.00120468570815021
0.00120358752334575
0.00120281209300435
0.00119461598263335
0.00119487462358919
0.00119506232951610
0.00120358021036937
0.00120531609767485
0.00120220458686890
0.00119558499546856
0.00120267269447588
0.00119532424176771
0.00119540991422582
0.00120168861507559
0.00119794577057708
0.00120184574427115
0.00120298957755724
0.00120099822877746
0.00120288038793585
0.00119681792297697
0.00120281949050035
0.00120564718230104
0.00120440316350102
0.00119503481435836
0.00119839723939583
0.00119843038565196
0.00120222034167194
0.00120117529962461
0.00120347236732370
0.00119841183502125
0.00119647233431406
0.00119503999856875
0.00120326320700519
0.00119646809425758
0.00119865925957257
0.00120062134238349
0.00119674743902428
0.00120170328744479
0.00119981376446878
0.00119582214630140
0.00120338318359906
0.00119520727586835
0.00119752879600510
0.00119684847623647
0.00120037046708434
0.00119509798477607
0.00119886378503857
0.00119525815496539
0.00119534740754587
0.00120341313468893
0.00119749884381488
0.00120124240126501
0.00120557307200659
0.00119918981992764
0.00120233702633542
0.00120309719130347
0.00119919170791377
0.00120186597647764
0.00119531706060868
0.00120520511818062
0.00119624952967706
0.00119719414606689
0.00120357396312254
0.00119985124530521
0.00120322749916871
0.00119875208094261
0.00119727526552948
0.00119444681560884
0.00120207953896930
0.00119915477351102
0.00119942087081886
0.00120131828603148
0.00119471283956230
0.00119778973726007
0.00120327266557036
0.00120235719586807
0.00119550398617331
0.00119556181740467
0.00119510822806463
0.00119409384352283
0.00119907731262197
0.00120186687809925
0.00120267507029630
0.00120037451152299
0.00119530581525928
0.00120158119648234
0.00119551799838395
0.00119561163965176
0.00119518312911253
0.00119570432698118
0.00119601901558190
0.00119635498706708
0.00119780975730179
0.00119779714798976
0.00119661075971307
0.00119701250215219
0.00120471506886343
0.00120243867869468
0.00120066885531263
0.00119621320401309
0.00119654437011039
0.00119492816169735
0.00120496560492935
0.00120248058261236
0.00120069346760106
0.00119776114787924
0.00119599444275483
0.00120146996711136
0.00120585521681943
0.00119604518427668
0.00119709350700686
0.00119876159182360
0.00119488793723492
0.00120220915280354
0.00119882865999235
0.00120579402241673
0.00119882620782267
0.00120144806336639
0.00119585243766575
0.00119857614245333
0.00119593360766219
0.00120309734917593
0.00120445333346298
0.00119820932093863
0.00120222642850497
0.00119752978360521
0.00120036755164628
0.00120398908063542
0.00120116988230247
0.00119802373596846
0.00119759070028000
0.00119943111049883
0.00119907174783865
0.00119831527581567
0.00120069983039843
0.00120291054438842
0.00119909201740351
0.00119915226946291
0.00119549847310464
0.00119429320819260
0.00119748222318157
0.00119781024699479
0.00120184428160760
0.00120548323108885
0.00120522877047342
0.00119949463600625
0.00119688574076199
0.00120316677533144
0.00120311192859757
0.00120288777677974
0.00120292426009785
0.00119527104500079
0.00120217872516564
0.00119955912694312
0.00119654595846306
0.00119518222485226
0.00120388289368713
0.00119610011684859
0.00119596283891742
0.00120199184659693
0.00120473267250425
0.00120019869850022
0.00120243242768341
0.00119584308451943
0.00120544148483864
0.00120049060897490
0.00120215680677853
0.00119443875621658
0.00120371044621553
0.00120298342646131
0.00119544224421585
0.00120030054197715
0.00119791000354516
0.00120055739327884
0.00119878656902860
0.00119898112063936
0.00119616885312306
0.00119706464088586
0.00119424642929590
0.00120508410735144
0.00120184439866810
0.00120519136286458
0.00119596214842233
0.00120505316707071
0.00120353589462466
0.00120092873036048
0.00119928042714912
0.00119709136484055
0.00120302335672641
0.00119674403378527
0.00119477024504870
0.00120320795412932
0.00120205442622428
0.00120258255017743
0.00120170472994121
0.00119902857952350
0.00119868914498645
0.00120379368123450
0.00119780913436387
0.00120377447727481
0.00120346888217927
0.00120422716668413
0.00120006763941086
0.00120162793666634
0.00120541073298454
0.00119932756986023
0.00119472022583735
0.00120440099876399
0.00120157426481123
0.00119826088382255
0.00120596403925928
0.00119669005798780
0.00120182941287562
0.00120125988770290
0.00119864694517780
0.00119570624591149
0.00119430161982852
0.00119905334704518
0.00119620920347313
0.00120270930320963
0.00119844435223818
0.00120409872104962
0.00120281075629432
0.00120085231047389
0.00119612226069150
0.00120548860827115
0.00119718386443432
0.00120509497074288
0.00119668524485636
0.00119848276569171
0.00119505000419492
0.00120168139857896
0.00119616740265304
0.00119454061328968
0.00120267808175020
0.00119816925174698
0.00120192740189403
0.00119860642321286
0.00120152815802932
0.00119425979777556
0.00120492683986228
0.00120360670387535
0.00120295016981211
0.00120375735376333
0.00119859967582351
0.00120140735078780
0.00120090593831643
0.00120036062045718
0.00119730083706986
0.00119698354751594
0.00119941966524542
0.00119673255391232
0.00120365339500336
0.00120583325090275
0.00119435990340323
0.00120042797028801
0.00119504492663881
0.00120362509728667
0.00120586973891640
0.00119480335510077
0.00120527278034261
0.00119421813040364
0.00120220606336496
0.00120340483776100
0.00120040965081459
0.00120462431341117
0.00120478805878687
0.00120151125151297
0.00119565442790895
0.00119661361912455
0.00119618569291069
0.00119450183836768
0.00119528329990260
0.00120139732182103
0.00120527593212193
0.00119825346877161
0.00119892754908071
0.00120581219300381
0.00120534695026842
0.00120211973614120
0.00120585962714776
0.00120320197664660
0.00119804039117270
0.00120194858232479
0.00119692998344148
0.00119754608700998
0.00120216214045477
0.00120033416196503
0.00119893912216089
0.00120123165861644
0.00120300624067108
0.00120100239809114
0.00120062151017923
0.00120100284742509
0.00120014183903950
0.00119499111272398
0.00120263484161831
0.00120595387333556
0.00119825441165948
0.00120565510578220
0.00119815738513560
0.00120463852634112
0.00119945633837990
0.00119896112746825
0.00119661278482029
0.00119550785504835
0.00119770697512280
0.00120271325317998
0.00120339446487575
0.00120232545137984
0.00119411762702716
0.00120411856005613
0.00120506798397356
0.00120325145064809
0.00119451191827122
0.00119853823364460
0.00120245207549380
0.00120275415654606
0.00119669132484797
0.00119722865678128
0.00120207637398005
0.00119972990637272
0.00120148459695201
0.00119683733919169
0.00119612548505398
0.00120395572062837
0.00120320306001522
0.00120521373927742
0.00119529466686101
0.00119618673006721
0.00119518914338907
0.00119987716562308
0.00119631894396563
0.00120475069888551
0.00119518907579618
0.00119452998686115
0.00120068754186966
0.00120326994080625
0.00119774328068996
0.00119614778975177
0.00119806746813897
0.00119652174764452
0.00120012183023718
0.00120487637187918
0.00120154708726383
0.00119521840666575
0.00119869025703272
0.00119465539938268
0.00120001539495844
0.00119918065406261
0.00120597072419415
0.00120373923097194
0.00119982782003878
0.00120473337306681
0.00119565055913720
0.00119868005897334
0.00120512827469998
0.00120500992598899
0.00120256288813913
0.00120142004860346
0.00119811945468290
0.00120523232792028
0.00119549728848793
0.00120276702433807
0.00120175772918911
0.00120399782382803
0.00119877938673863
0.00120299786651233
0.00120402264612574
0.00119786952476835
0.00120062713940230
0.00120574954958921
0.00120059170239622
0.00119796508331528
0.00120143365866213
0.00119832763885203
0.00120307811452202
0.00119896680898428
0.00119990814125262
0.00120233691879759
0.00120567280662096
0.00119793305952592
0.00120405363819694
0.00120286886672728
0.00120545009347655
0.00119438307155405
0.00119828242783419
0.00120195184601145
0.00119737801870978
0.00119676459680781
0.00120253354261416
0.00120149487500392
0.00120108730383504
0.00120192525559575
0.00119457065607737
0.00119818541770212
0.00119941608696427
0.00119689085996544
0.00120258054015955
0.00120427418750408
0.00119737809234142
0.00120277260995668
0.00119565315471023
0.00120404067338100
0.00119566322058891
0.00120105851262467
0.00119839388160546
0.00120368111453593
0.00120004536942931
0.00119987513206468
0.00120452458468062
0.00119823770175527
0.00119939332267886
0.00120556236344212
0.00119450757357497
0.00120567550000969
0.00119627048211747
0.00120200544360048
0.00120103727537615
0.00120210134899686
0.00119833226459034
0.00120144334112485
0.00120373381062120
0.00119423108972897
0.00119500648209939
0.00120569762000622
0.00120181619438898
0.00119677485379397
0.00119884189371750
0.00119546424621903
0.00119722126585677
0.00119709415404135
0.00119797998286491
0.00119582680815436
0.00119817609191659
0.00119545990145169
0.00120460983669300
0.00119513134068077
0.00120516048751329
0.00119878823962841
0.00119456881754435
0.00119810848203793
0.00120283159390656
0.00120353618588801
0.00120053887077894
0.00120223468155581
0.00120472359235120
0.00119465750147904
0.00119764393655660
0.00119455429867598
0.00119634572116361
0.00120264198963020
0.00120266103928199
0.00120453358885382
0.00120098919557385
0.00119484821202464
0.00120507293484227
0.00120360446510821
0.00119743136227704
0.00120052395879410
0.00120581731484365
0.00120258813680552
0.00120406763516796
0.00119919912673210
0.00119964749658728
0.00120072856093253
0.00119722909852237
0.00120298822161170
0.00120004665328153
0.00120176171599527
0.00119769294698437
0.00119566469563294
0.00119970687520557
0.00119834951136982
0.00120345736114078
0.00120336354985013
0.00120202214657104
0.00119560204631594
0.00119425867064644
0.00120071808847047
0.00119760982821683
0.00120527291656648
0.00120577084363256
0.00119743944466673
0.00120360984344342
0.00120475333621719
0.00120117031892181
0.00120460820082869
0.00120532477849435
0.00120058989704904
0.00120274064189513
0.00120092109957430
0.00119431028965300
0.00119935837173942
0.00120175562348821
0.00120025443543207
0.00119846775192935
0.00120524561599610
0.00120395439389432
0.00120418902575945
0.00119847041087879
0.00120111821490262
0.00120447063077577
0.00120520201930209
0.00120202157129234
0.00119648131749522
0.00120184620710475
0.00119486461861465
0.00119888072298107
0.00120200317839849
0.00120520470791455
0.00120373140038686
0.00119981457926202
0.00120308099052079
0.00119900456944491
0.00120566143191587
0.00120585569641477
0.00120436977034837
0.00119866660531095
0.00119945690193647
0.00119696024637166
0.00120341307711629
0.00120459405126700
0.00120496454017552
0.00120069941908347
0.00120118641723295
0.00119578652064405
0.00120479656181443
0.00119940472296783
0.00119646806807357
0.00120479581188611
0.00120315102647248
0.00120458983568880
0.00119741940261630
0.00120207871183743
0.00120197135885302
0.00119547377992679
0.00119888782107668
0.00119730344341579
0.00120260003688767
0.00119740061257955
0.00120475438628219
0.00120391894670776
0.00119868031815377
0.00119997483531557
0.00120233766231207
0.00120401242801320
0.00120131555627611
0.00120089684593028
0.00119791250605107
0.00119947709521022
0.00120256554699880
0.00120461286054331
0.00120265026804980
0.00119422335329672
0.00120209731760554
0.00119926210589084
0.00119925384215000
0.00119540444183407
0.00120377618027422
0.00119789826526357
0.00119695473737082
0.00119811255865348
0.00119850830568012
0.00120055864551700
0.00120074304185119
0.00119874986674349
0.00119877757055438
0.00120018440663054
0.00120189036650515
0.00120541098237918
0.00120266818217193
0.00119880095694435
0.00120398245607196
0.00119561206010074
0.00119472560126328
0.00119501096462778
0.00119596677981996
0.00119789063904353
0.00119762072132646
0.00119414017189356
0.00120047886112620
0.00119514447231153
0.00119575817827731
0.00120157369448418
0.00120431184493715
0.00120569065957486
0.00120085006112967
0.00120596220257490
0.00120064249888195
0.00120018550145808
0.00119796818479188
0.00119916002158072
0.00119990167504324
0.00119485244500696
0.00120465287058639
0.00119477560309261
0.00119923421946878
0.00120391955407943
0.00119873441621080
0.00120136169858046
0.00120382368882099
0.00120463482046875
0.00120517333952985
0.00119628941577611
0.00119710298701703
0.00120477438821808
0.00120112034232463
0.00120004608098216
0.00120135371506603
0.00120383306690678
0.00120038267003392
0.00119642490115858
0.00119944672158817
0.00119913493103784
0.00120559263299534
0.00120144066064960
0.00120234467942302
0.00120264197534422
0.00119816274228345
0.00120020388504630
0.00120068033558415
0.00119587794262937
0.00120074467254674
0.00120233763946930
0.00119911746642852
0.00120403524504812
0.00120277664479394
0.00119832037250503
0.00119945054846224
0.00119863667878311
0.00120330665570701
0.00120281125326823
0.00119916333414089
0.00120232503088961
0.00120534256184602
0.00120341079117878
0.00120246686229757
0.00119531201087429
0.00119867916788588
0.00120109085676486
0.00119951256057560
0.00119460407984087
0.00119674425100824
0.00120401026873268
0.00119418773631236
0.00120436453038067
0.00119493682863639
0.00120202851108098
0.00120000253589137
0.00119661592558500
0.00120085938870485
0.00119546626981108
0.00120205399479586
0.00120119502657747
0.00119467171388865
0.00119467611622252
0.00119583000764403
0.00119423545280119
0.00119922210654836
0.00120398665770339
0.00120140868205745
0.00120024155298373
0.00120436641867520